CH4                                                                     
SP        RHF                                                         STO-3G              
Number of atoms                            I                5
Info1-9                                    I   N=           9
          12          12           0           0           0         110
           1           1           2
Full Title                                 C   N=           1
CH4         
Route                                      C   N=           1
#p          
Charge                                     I                0
Multiplicity                               I                1
Number of electrons                        I               10
Number of alpha electrons                  I                5
Number of beta electrons                   I                5
Number of basis functions                  I                9
Number of independent functions            I                9
Number of point charges in /Mol/           I                0
Number of translation vectors              I                0
Atomic numbers                             I   N=           5
           6           1           1           1           1
Nuclear charges                            R   N=           5
  6.00000000E+00  1.00000000E+00  1.00000000E+00  1.00000000E+00  1.00000000E+00
Current cartesian coordinates              R   N=          15
  0.00000000E+00  0.00000000E+00  0.00000000E+00  1.16740622E+00  1.16740622E+00
  1.16740622E+00 -1.16740622E+00 -1.16740622E+00  1.16740622E+00 -1.16740622E+00
  1.16740622E+00 -1.16740622E+00  1.16740622E+00 -1.16740622E+00 -1.16740622E+00
Number of symbols in /Mol/                 I                0
Force Field                                I                0
Atom Types                                 C   N=           5
                                                            
Int Atom Types                             I   N=           5
           0           0           0           0           0
MM charges                                 R   N=           5
  0.00000000E+00  0.00000000E+00  0.00000000E+00  0.00000000E+00  0.00000000E+00
Integer atomic weights                     I   N=           5
          12           1           1           1           1
Real atomic weights                        R   N=           5
  1.20000000E+01  1.00782504E+00  1.00782504E+00  1.00782504E+00  1.00782504E+00
Atom fragment info                         I   N=           5
           0           0           0           0           0
Atom residue num                           I   N=           5
           0           0           0           0           0
Nuclear spins                              I   N=           5
           0           1           1           1           1
Nuclear ZEff                               R   N=           5
 -3.60000000E+00 -1.00000000E+00 -1.00000000E+00 -1.00000000E+00 -1.00000000E+00
Nuclear ZNuc                               R   N=           5
  6.00000000E+00  1.00000000E+00  1.00000000E+00  1.00000000E+00  1.00000000E+00
Nuclear QMom                               R   N=           5
  0.00000000E+00  0.00000000E+00  0.00000000E+00  0.00000000E+00  0.00000000E+00
Nuclear GFac                               R   N=           5
  0.00000000E+00  2.79284600E+00  2.79284600E+00  2.79284600E+00  2.79284600E+00
MicOpt                                     I   N=           5
          -1          -1          -1          -1          -1
Number of residues                         I                0
Number of secondary structures             I                0
SymInf integers                            I   N=          26
           4           4           1           1           1           1
          -1          -1          -1           1          -1          -1
          -1           1           0           0           0           0
           0           0           0           0           0           0
           0           0
RotTr to input orientation                 R   N=          12
  7.07106778E-01  4.08248292E-01  5.77350272E-01 -7.07106784E-01  4.08248292E-01
  5.77350265E-01 -3.14198028E-09 -8.16496580E-01  5.77350271E-01  0.00000000E+00
  1.88972624E-09  1.88972602E-09
Number of contracted shells                I                6
Number of primitive shells                 I               18
Pure/Cartesian d shells                    I                0
Pure/Cartesian f shells                    I                0
Highest angular momentum                   I                1
Largest degree of contraction              I                3
Shell types                                I   N=           6
           0          -1           0           0           0           0
Number of primitives per shell             I   N=           6
           3           3           3           3           3           3
Shell to atom map                          I   N=           6
           1           1           2           3           4           5
Primitive exponents                        R   N=          18
  7.16168373E+01  1.30450963E+01  3.53051216E+00  2.94124936E+00  6.83483096E-01
  2.22289916E-01  3.42525091E+00  6.23913730E-01  1.68855404E-01  3.42525091E+00
  6.23913730E-01  1.68855404E-01  3.42525091E+00  6.23913730E-01  1.68855404E-01
  3.42525091E+00  6.23913730E-01  1.68855404E-01
Contraction coefficients                   R   N=          18
  1.54328967E-01  5.35328142E-01  4.44634542E-01 -9.99672292E-02  3.99512826E-01
  7.00115469E-01  1.54328967E-01  5.35328142E-01  4.44634542E-01  1.54328967E-01
  5.35328142E-01  4.44634542E-01  1.54328967E-01  5.35328142E-01  4.44634542E-01
  1.54328967E-01  5.35328142E-01  4.44634542E-01
P(S=P) Contraction coefficients            R   N=          18
  0.00000000E+00  0.00000000E+00  0.00000000E+00  1.55916275E-01  6.07683719E-01
  3.91957393E-01  0.00000000E+00  0.00000000E+00  0.00000000E+00  0.00000000E+00
  0.00000000E+00  0.00000000E+00  0.00000000E+00  0.00000000E+00  0.00000000E+00
  0.00000000E+00  0.00000000E+00  0.00000000E+00
Coordinates of each shell                  R   N=          18
  0.00000000E+00  0.00000000E+00  0.00000000E+00  0.00000000E+00  0.00000000E+00
  0.00000000E+00  1.16740622E+00  1.16740622E+00  1.16740622E+00 -1.16740622E+00
 -1.16740622E+00  1.16740622E+00 -1.16740622E+00  1.16740622E+00 -1.16740622E+00
  1.16740622E+00 -1.16740622E+00 -1.16740622E+00
Num ILSW                                   I              100
ILSW                                       I   N=         100
           0           0           0           0           2           0
           0           0           0           0           0          -1
           0           0           0           0           0           0
           0           0           0           0           0           0
           1           0           0           0           0           0
           0           0      100000           0          -1           0
           0           0           0           0           0           0
           0           0           0           1           0           0
           0           0           1           0           0           0
           0           0           4          52           0           0
           0           0           0           0           0           0
           0           0           0           0           0           0
           0           0           0           0           0           0
           0           0           0           0           0           0
           0           0           0           0           0           0
           0           0           0           0           0           0
           0           0           0           0
Num RLSW                                   I               52
RLSW                                       R   N=          52
  1.00000000E+00  1.00000000E+00  1.00000000E+00  1.00000000E+00  1.00000000E+00
  0.00000000E+00  0.00000000E+00  1.00000000E+00  0.00000000E+00  0.00000000E+00
  0.00000000E+00  0.00000000E+00  1.00000000E+00  0.00000000E+00  0.00000000E+00
  0.00000000E+00  0.00000000E+00  1.00000000E+00  0.00000000E+00  0.00000000E+00
  0.00000000E+00  0.00000000E+00  1.00000000E+00  0.00000000E+00  0.00000000E+00
  0.00000000E+00  0.00000000E+00  1.00000000E+00  0.00000000E+00  0.00000000E+00
  0.00000000E+00  0.00000000E+00  1.00000000E+00  0.00000000E+00  0.00000000E+00
  0.00000000E+00  0.00000000E+00  0.00000000E+00  1.00000000E+00  1.00000000E+00
  0.00000000E+00  0.00000000E+00  0.00000000E+00  0.00000000E+00  0.00000000E+00
  0.00000000E+00  0.00000000E+00  0.00000000E+00  0.00000000E+00  0.00000000E+00
  0.00000000E+00  0.00000000E+00
MxBond                                     I                4
NBond                                      I   N=           5
           4           1           1           1           1
IBond                                      I   N=          20
           2           3           4           5           1           0
           0           0           1           0           0           0
           1           0           0           0           1           0
           0           0
RBond                                      R   N=          20
  1.00000000E+00  1.00000000E+00  1.00000000E+00  1.00000000E+00  1.00000000E+00
  0.00000000E+00  0.00000000E+00  0.00000000E+00  1.00000000E+00  0.00000000E+00
  0.00000000E+00  0.00000000E+00  1.00000000E+00  0.00000000E+00  0.00000000E+00
  0.00000000E+00  1.00000000E+00  0.00000000E+00  0.00000000E+00  0.00000000E+00
Virial Ratio                               R      2.005547080783327E+00
SCF Energy                                 R     -3.972627841492512E+01
Total Energy                               R     -3.972627841492512E+01
RMS Density                                R      2.736447741051076E-10
Nuclear derivative order                   I                0
External E-field                           R   N=          35
  0.00000000E+00  0.00000000E+00  0.00000000E+00  0.00000000E+00  0.00000000E+00
  0.00000000E+00  0.00000000E+00  0.00000000E+00  0.00000000E+00  0.00000000E+00
  0.00000000E+00  0.00000000E+00  0.00000000E+00  0.00000000E+00  0.00000000E+00
  0.00000000E+00  0.00000000E+00  0.00000000E+00  0.00000000E+00  0.00000000E+00
  0.00000000E+00  0.00000000E+00  0.00000000E+00  0.00000000E+00  0.00000000E+00
  0.00000000E+00  0.00000000E+00  0.00000000E+00  0.00000000E+00  0.00000000E+00
  0.00000000E+00  0.00000000E+00  0.00000000E+00  0.00000000E+00  0.00000000E+00
IOpCl                                      I                0
IROHF                                      I                0
Alpha Orbital Energies                     R   N=           9
 -1.10286372E+01 -9.18907567E-01 -5.25695748E-01 -5.25695748E-01 -5.25695748E-01
  7.30917374E-01  7.30917374E-01  7.30917374E-01  7.81082320E-01
Alpha MO coefficients                      R   N=          81
  9.91864055E-01  3.89811310E-02  0.00000000E+00  0.00000000E+00  0.00000000E+00
 -7.16833346E-03 -7.16833346E-03 -7.16833346E-03 -7.16833346E-03 -2.21963058E-01
  6.24015606E-01  0.00000000E+00  0.00000000E+00  0.00000000E+00  1.80176875E-01
  1.80176875E-01  1.80176875E-01  1.80176875E-01  0.00000000E+00  0.00000000E+00
  0.00000000E+00  5.73625535E-01  0.00000000E+00  2.99454866E-01 -2.99454866E-01
  2.99454866E-01 -2.99454866E-01  0.00000000E+00  0.00000000E+00  5.73625535E-01
  0.00000000E+00  0.00000000E+00  2.99454866E-01 -2.99454866E-01 -2.99454866E-01
  2.99454866E-01  0.00000000E+00  0.00000000E+00  0.00000000E+00  0.00000000E+00
  5.73625535E-01  2.99454866E-01  2.99454866E-01 -2.99454866E-01 -2.99454866E-01
  0.00000000E+00  0.00000000E+00  1.11559022E+00  0.00000000E+00  0.00000000E+00
 -6.23626207E-01  6.23626207E-01  6.23626207E-01 -6.23626207E-01  0.00000000E+00
  0.00000000E+00  0.00000000E+00  1.11559022E+00  0.00000000E+00 -6.23626207E-01
  6.23626207E-01 -6.23626207E-01  6.23626207E-01  0.00000000E+00  0.00000000E+00
  0.00000000E+00  0.00000000E+00  1.11559022E+00 -6.23626207E-01 -6.23626207E-01
  6.23626207E-01  6.23626207E-01 -2.53464096E-01  1.66779999E+00  0.00000000E+00
  0.00000000E+00  0.00000000E+00 -6.76808186E-01 -6.76808186E-01 -6.76808186E-01
 -6.76808186E-01
Total SCF Density                          R   N=          45
  2.06612380E+00 -1.99688859E-01  7.81830010E-01  0.00000000E+00  0.00000000E+00
  6.58092508E-01  0.00000000E+00  0.00000000E+00 -1.79955488E-16  6.58092508E-01
  0.00000000E+00  0.00000000E+00 -5.45572311E-17 -9.57759376E-17  6.58092508E-01
 -9.42052451E-02  2.24307505E-01  3.43549915E-01  3.43549915E-01  3.43549915E-01
  6.03069483E-01 -9.42052451E-02  2.24307505E-01 -3.43549915E-01 -3.43549915E-01
  3.43549915E-01 -1.14316251E-01  6.03069483E-01 -9.42052451E-02  2.24307505E-01
 -3.43549915E-01  3.43549915E-01 -3.43549915E-01 -1.14316251E-01 -1.14316251E-01
  6.03069483E-01 -9.42052451E-02  2.24307505E-01  3.43549915E-01 -3.43549915E-01
 -3.43549915E-01 -1.14316251E-01 -1.14316251E-01 -1.14316251E-01  6.03069483E-01
Mulliken Charges                           R   N=           5
 -2.77468625E-01  6.93671562E-02  6.93671562E-02  6.93671562E-02  6.93671562E-02
ONIOM Charges                              I   N=          16
           0           0           0           0           0           0
           0           0           0           0           0           0
           0           0           0           0
ONIOM Multiplicities                       I   N=          16
           1           0           0           0           0           0
           0           0           0           0           0           0
           0           0           0           0
Atom Layers                                I   N=           5
           1           1           1           1           1
Atom Modifiers                             I   N=           5
           0           0           0           0           0
Force Field                                I                0
Atom Modified Types                        C   N=           5
                                                            
Int Atom Modified Types                    I   N=           5
           0           0           0           0           0
Link Atoms                                 I   N=           5
           0           0           0           0           0
Atom Modified MM Charges                   R   N=           5
  0.00000000E+00  0.00000000E+00  0.00000000E+00  0.00000000E+00  0.00000000E+00
Link Distances                             R   N=          20
  0.00000000E+00  0.00000000E+00  0.00000000E+00  0.00000000E+00  0.00000000E+00
  0.00000000E+00  0.00000000E+00  0.00000000E+00  0.00000000E+00  0.00000000E+00
  0.00000000E+00  0.00000000E+00  0.00000000E+00  0.00000000E+00  0.00000000E+00
  0.00000000E+00  0.00000000E+00  0.00000000E+00  0.00000000E+00  0.00000000E+00
Cartesian Gradient                         R   N=          15
  0.00000000E+00  0.00000000E+00  0.00000000E+00  0.00000000E+00  0.00000000E+00
  0.00000000E+00  0.00000000E+00  0.00000000E+00  0.00000000E+00  0.00000000E+00
  0.00000000E+00  0.00000000E+00  0.00000000E+00  0.00000000E+00  0.00000000E+00
Dipole Moment                              R   N=           3
  2.99934821E-16  3.39905160E-16 -1.27070072E-16
Quadrupole Moment                          R   N=           6
 -8.88178420E-16  8.88178420E-16  1.77635684E-15  5.97421547E-17  1.47878434E-16
  1.23346027E-16
QEq coupling tensors                       R   N=          30
 -9.66411951E-16 -3.43982057E-16  2.78447813E-16 -5.80840382E-16  9.24822452E-16
  6.87964138E-16 -3.30146513E-01 -8.34378452E-02  1.63270819E-01  7.16497036E-02
  1.17881432E-02  1.66875694E-01  1.25766363E-01  8.34378460E-02  4.11093329E-02
  1.32730446E-01 -2.16168294E-01 -1.66875696E-01  4.11093324E-02  8.34378483E-02
  1.25766360E-01 -2.16168293E-01  1.32730449E-01 -1.66875693E-01  1.63270818E-01
 -8.34378491E-02 -3.30146512E-01  1.17881434E-02  7.16497016E-02  1.66875695E-01
