B3LYP Gradient                                                          
Freq      RB3LYP                                                      6-31G               
Number of atoms                            I                4
Info1-9                                    I   N=           9
          13          12           0           0           0         100
           6          18        -502
Full Title                                 C   N=           2
B3LYP Gradient          
Route                                      C   N=           6
#p RB3LYP/6-31G nosymm SCF(VeryTight) Integral(Grid=75302) F
req         
Charge                                     I                0
Multiplicity                               I                1
Number of electrons                        I               18
Number of alpha electrons                  I                9
Number of beta electrons                   I                9
Number of basis functions                  I               22
Number of independent functions            I               22
Number of point charges in /Mol/           I                0
Number of translation vectors              I                0
Atomic numbers                             I   N=           4
           8           8           1           1
Nuclear charges                            R   N=           4
  8.00000000E+00  8.00000000E+00  1.00000000E+00  1.00000000E+00
Current cartesian coordinates              R   N=          12
  0.00000000E+00  0.00000000E+00  0.00000000E+00  0.00000000E+00  0.00000000E+00
  2.83458919E+00  2.83458919E+00  0.00000000E+00  0.00000000E+00  0.00000000E+00
  1.32280829E+00  2.83458919E+00
Number of symbols in /Mol/                 I                0
Force Field                                I                0
Atom Types                                 C   N=           4
                                                
Int Atom Types                             I   N=           4
           0           0           0           0
MM charges                                 R   N=           4
  0.00000000E+00  0.00000000E+00  0.00000000E+00  0.00000000E+00
Integer atomic weights                     I   N=           4
          16          16           1           1
Real atomic weights                        R   N=           4
  1.59949146E+01  1.59949146E+01  1.00782504E+00  1.00782504E+00
Atom fragment info                         I   N=           4
           0           0           0           0
Atom residue num                           I   N=           4
           0           0           0           0
Nuclear spins                              I   N=           4
           0           0           1           1
Nuclear ZEff                               R   N=           4
 -5.60000000E+00 -5.60000000E+00 -1.00000000E+00 -1.00000000E+00
Nuclear ZNuc                               R   N=           4
  8.00000000E+00  8.00000000E+00  1.00000000E+00  1.00000000E+00
Nuclear QMom                               R   N=           4
  0.00000000E+00  0.00000000E+00  0.00000000E+00  0.00000000E+00
Nuclear GFac                               R   N=           4
  0.00000000E+00  0.00000000E+00  2.79284600E+00  2.79284600E+00
MicOpt                                     I   N=           4
          -1          -1          -1          -1
Number of residues                         I                0
Number of secondary structures             I                0
Number of contracted shells                I               10
Number of primitive shells                 I               28
Pure/Cartesian d shells                    I                1
Pure/Cartesian f shells                    I                0
Highest angular momentum                   I                1
Largest degree of contraction              I                6
Shell types                                I   N=          10
           0          -1          -1           0          -1          -1
           0           0           0           0
Number of primitives per shell             I   N=          10
           6           3           1           6           3           1
           3           1           3           1
Shell to atom map                          I   N=          10
           1           1           1           2           2           2
           3           3           4           4
Primitive exponents                        R   N=          28
  5.48467166E+03  8.25234946E+02  1.88046958E+02  5.29645000E+01  1.68975704E+01
  5.79963534E+00  1.55396162E+01  3.59993359E+00  1.01376175E+00  2.70005823E-01
  5.48467166E+03  8.25234946E+02  1.88046958E+02  5.29645000E+01  1.68975704E+01
  5.79963534E+00  1.55396162E+01  3.59993359E+00  1.01376175E+00  2.70005823E-01
  1.87311370E+01  2.82539436E+00  6.40121692E-01  1.61277759E-01  1.87311370E+01
  2.82539436E+00  6.40121692E-01  1.61277759E-01
Contraction coefficients                   R   N=          28
  1.83107443E-03  1.39501722E-02  6.84450781E-02  2.32714336E-01  4.70192898E-01
  3.58520853E-01 -1.10777550E-01 -1.48026263E-01  1.13076702E+00  1.00000000E+00
  1.83107443E-03  1.39501722E-02  6.84450781E-02  2.32714336E-01  4.70192898E-01
  3.58520853E-01 -1.10777550E-01 -1.48026263E-01  1.13076702E+00  1.00000000E+00
  3.34946043E-02  2.34726953E-01  8.13757326E-01  1.00000000E+00  3.34946043E-02
  2.34726953E-01  8.13757326E-01  1.00000000E+00
P(S=P) Contraction coefficients            R   N=          28
  0.00000000E+00  0.00000000E+00  0.00000000E+00  0.00000000E+00  0.00000000E+00
  0.00000000E+00  7.08742682E-02  3.39752839E-01  7.27158577E-01  1.00000000E+00
  0.00000000E+00  0.00000000E+00  0.00000000E+00  0.00000000E+00  0.00000000E+00
  0.00000000E+00  7.08742682E-02  3.39752839E-01  7.27158577E-01  1.00000000E+00
  0.00000000E+00  0.00000000E+00  0.00000000E+00  0.00000000E+00  0.00000000E+00
  0.00000000E+00  0.00000000E+00  0.00000000E+00
Coordinates of each shell                  R   N=          30
  0.00000000E+00  0.00000000E+00  0.00000000E+00  0.00000000E+00  0.00000000E+00
  0.00000000E+00  0.00000000E+00  0.00000000E+00  0.00000000E+00  0.00000000E+00
  0.00000000E+00  2.83458919E+00  0.00000000E+00  0.00000000E+00  2.83458919E+00
  0.00000000E+00  0.00000000E+00  2.83458919E+00  2.83458919E+00  0.00000000E+00
  0.00000000E+00  2.83458919E+00  0.00000000E+00  0.00000000E+00  0.00000000E+00
  1.32280829E+00  2.83458919E+00  0.00000000E+00  1.32280829E+00  2.83458919E+00
Num ILSW                                   I              100
ILSW                                       I   N=         100
           0           1           0           0           2           0
           0           0           0           0         402          -1
       75302           0           0           0           2           0
           0           0           0           0           1           0
           1           1           0           0           0           0
           0           0      100000           0          -1           0
           0           0           0           0           0           0
           0           0           0           1           0           0
           0 -2000000000           1           0           0           0
           0           0           4          52           0           0
           0           0           5           0           0           0
           0           0           0           4           0           1
           0           0           0           0           0           0
           0           0           0           0           0           0
           0           0           0           0           0           0
           0           0           0           0           0           0
           0           0           0           0
Num RLSW                                   I               52
RLSW                                       R   N=          52
  8.00000000E-01  7.20000000E-01  1.00000000E+00  8.10000000E-01  2.00000000E-01
  0.00000000E+00  0.00000000E+00  1.00000000E+00  0.00000000E+00  0.00000000E+00
  0.00000000E+00  0.00000000E+00  1.00000000E+00  0.00000000E+00  0.00000000E+00
  0.00000000E+00  0.00000000E+00  1.00000000E+00  0.00000000E+00  0.00000000E+00
  0.00000000E+00  0.00000000E+00  1.00000000E+00  0.00000000E+00  0.00000000E+00
  0.00000000E+00  0.00000000E+00  1.00000000E+00  0.00000000E+00  0.00000000E+00
  0.00000000E+00  0.00000000E+00  1.00000000E+00  0.00000000E+00  0.00000000E+00
  0.00000000E+00  0.00000000E+00  0.00000000E+00  1.00000000E+00  1.00000000E+00
  0.00000000E+00  1.00000000E+00  0.00000000E+00  0.00000000E+00  0.00000000E+00
  0.00000000E+00  0.00000000E+00  0.00000000E+00  0.00000000E+00  0.00000000E+00
  0.00000000E+00  0.00000000E+00
MxBond                                     I                2
NBond                                      I   N=           4
           1           2           0           1
IBond                                      I   N=           8
           2           0           1           4           0           0
           2           0
RBond                                      R   N=           8
  1.00000000E+00  0.00000000E+00  1.00000000E+00  2.00000000E+00  0.00000000E+00
  0.00000000E+00  2.00000000E+00  0.00000000E+00
Virial Ratio                               R      2.000909924396511E+00
SCF Energy                                 R     -1.512569824353355E+02
Total Energy                               R     -1.512569824353355E+02
RMS Force                                  R      3.106663160155265E-01
RMS Density                                R      4.995528568299574E-09
NImag                                      I                3
Job Status                                 I                1
Nuclear derivative order                   I                2
External E-field                           R   N=          35
  0.00000000E+00  0.00000000E+00  0.00000000E+00  0.00000000E+00  0.00000000E+00
  0.00000000E+00  0.00000000E+00  0.00000000E+00  0.00000000E+00  0.00000000E+00
  0.00000000E+00  0.00000000E+00  0.00000000E+00  0.00000000E+00  0.00000000E+00
  0.00000000E+00  0.00000000E+00  0.00000000E+00  0.00000000E+00  0.00000000E+00
  0.00000000E+00  0.00000000E+00  0.00000000E+00  0.00000000E+00  0.00000000E+00
  0.00000000E+00  0.00000000E+00  0.00000000E+00  0.00000000E+00  0.00000000E+00
  0.00000000E+00  0.00000000E+00  0.00000000E+00  0.00000000E+00  0.00000000E+00
IOpCl                                      I                0
IROHF                                      I                0
Alpha Orbital Energies                     R   N=          22
 -1.92514633E+01 -1.91870266E+01 -1.18541249E+00 -9.17619838E-01 -5.26229405E-01
 -4.53493140E-01 -4.27685958E-01 -3.13528757E-01 -3.02837843E-01 -1.08182749E-01
 -2.02707905E-02  1.51082251E-01  6.75482810E-01  8.32750765E-01  8.57395165E-01
  9.08728745E-01  9.30776808E-01  9.93969386E-01  1.03643666E+00  1.32327543E+00
  1.40672159E+00  1.55288857E+00
Alpha MO coefficients                      R   N=         484
  9.95126278E-01  2.70928532E-02  9.18040210E-04  1.49446779E-04  1.44681681E-03
 -1.14375599E-02 -1.07737598E-03 -1.42811014E-04 -3.03908263E-03  3.65780409E-04
 -1.11144177E-04  3.35787315E-05  1.69690035E-04 -7.89771239E-05  1.88935160E-03
  1.23506657E-05 -6.58624079E-04 -2.35316419E-03  5.47545710E-04  1.11546526E-03
 -1.42701669E-04  1.70169782E-03 -4.32662750E-04 -9.21415818E-05  3.87489304E-06
  1.04313964E-04  2.27476805E-04  1.92967996E-03 -3.52328720E-05 -2.64044414E-04
  1.56970457E-03  9.94986569E-01  2.90639380E-02  4.89995107E-05  2.73612193E-03
 -1.28984534E-03 -1.54806246E-02 -4.29036205E-05 -2.93581053E-03  2.12812727E-03
 -1.88515155E-04  2.37993882E-04 -8.98353362E-04  6.17304069E-03 -9.17913374E-02
  2.00092862E-01  1.16750593E-02  1.16838403E-02  9.27629170E-02  1.83123787E-01
  1.26913723E-02  1.42676671E-02  4.01124633E-02 -1.86568361E-01  4.11350808E-01
  4.43151515E-03  1.80001611E-01 -8.12055922E-02  3.01069993E-01  4.66180128E-03
  2.40888629E-02 -2.61864820E-02  1.37740068E-02 -8.63808930E-04  2.34033448E-01
 -1.62387768E-02 -2.04186903E-01  4.66654689E-01  4.05493250E-02  1.88465555E-04
  3.04777980E-02  4.93288863E-01  3.34148489E-02  4.15289925E-03  2.96221874E-02
  8.74946750E-02 -2.06788240E-01  2.52404560E-03 -1.66110087E-01 -1.02686263E-01
 -1.49231615E-01 -1.30958432E-03 -1.60611873E-02 -3.04705570E-02  4.48996221E-02
  1.37067384E-02 -1.87415555E-01 -3.41576289E-02 -4.66435730E-02  1.11234043E-01
  5.28575221E-02  1.42342811E-01 -2.62507149E-01  1.59077961E-01  3.53802342E-02
  9.23546751E-02 -1.39843442E-01  7.72189874E-02 -1.64721459E-01  1.01960275E-02
  4.48289764E-01  1.73646726E-01 -3.86089929E-01  9.63231911E-04  1.67115468E-01
  9.44612593E-02  3.78176495E-02  3.54385169E-02  2.59098770E-01  1.36109134E-01
  1.78837941E-02 -5.06298744E-02  3.88885972E-01 -8.48957518E-02 -1.36132790E-01
 -4.46899968E-02  2.47167934E-01 -6.15241482E-02 -6.17106174E-02 -3.52963236E-02
  8.39810363E-02  2.83430074E-01 -1.25707620E-01  1.77069582E-01  1.25556393E-01
  1.91657502E-01 -6.90605554E-02  1.21567383E-01  1.83357817E-01  2.18561977E-01
 -4.33095653E-02 -9.40294830E-03 -4.63068470E-02  1.11447364E-01 -1.82715627E-01
 -1.46561101E-01 -3.47924284E-01  1.74258742E-01 -1.25513373E-01 -1.10630723E-01
 -2.05767044E-01 -5.70777124E-02  1.36371068E-01 -1.70318155E-01 -1.72442911E-01
  3.73570254E-01  2.01440511E-01 -1.22389357E-01 -1.13170518E-01  2.37050933E-01
 -6.13201427E-02 -5.23379018E-02 -4.30989825E-02  1.52211141E-02  2.95951687E-03
 -1.38989213E-02 -1.67413208E-02  6.42954616E-01 -2.59003668E-02  9.85323976E-03
 -1.35889915E-02  4.44068844E-01 -5.41613298E-03 -3.12436890E-02  7.00524168E-02
  1.80808171E-02 -2.28893073E-01  1.02647825E-01  1.42096931E-01  1.37593599E-02
 -1.13665843E-01  7.14852368E-02 -5.13488399E-03  3.09777443E-03 -1.23438454E-01
  7.95108338E-03 -2.64045650E-02  7.07059614E-02 -2.68493490E-01 -2.31802768E-02
 -4.19052315E-02  9.62348075E-02 -1.78319696E-01 -1.83176318E-02 -3.75098225E-02
  2.23699592E-04 -5.73684946E-03  5.84399656E-01  9.74679598E-03  2.02387611E-02
  1.81656733E-02  4.30051630E-01  4.30623028E-03  3.78962207E-04 -1.80296396E-01
 -2.41127266E-01  1.63642852E-03  4.66593703E-03  4.04753075E-02 -9.28240394E-02
 -4.61541840E-01 -8.28088659E-03 -1.15839336E-02 -2.73707644E-01 -4.28521779E-01
 -3.19595207E-03 -2.24546189E-02  7.20221428E-03 -1.89482175E-02  6.10628283E-02
 -3.04926415E-03 -4.92869116E-02 -5.32144600E-02  4.55403980E-02 -1.55867705E-02
 -5.41235945E-02  3.05269138E-01  7.71787988E-01 -1.85511928E-03  7.56013712E-02
 -4.72664644E-02  1.34197263E-01 -3.72385692E-02 -3.39036376E-02  5.42936625E-01
  2.79002879E-01 -2.80772568E-02 -4.58298212E-02  5.35014542E-01  6.23946602E-02
 -1.52900270E-01  4.02672714E-03  3.63558200E-02  5.14084482E-01 -4.98522526E-01
  1.03492276E-02  2.91303215E-03  5.31456791E-01  3.24056072E-02  1.93122137E-02
 -2.18416911E-02  2.86454929E-01  2.46250513E-02 -6.92453160E-02  6.10642607E-02
 -7.15622214E-02 -9.80805394E-02 -2.29360818E-01  4.25630344E-02 -7.71579296E-02
 -1.63967208E-01  5.91235103E-02 -8.32725901E-02 -1.77039000E-03 -2.31212248E-01
 -1.48130986E-01 -1.22177737E+00  6.38761192E-03 -5.29215231E-01 -1.84388232E-01
 -7.41557395E-02 -1.46755966E-01  4.36678329E-02  2.04802914E+00  1.07969291E-02
  8.94461431E-02  3.44588432E-01  3.49100575E-02  1.86351380E-01 -5.17792838E-01
 -5.18521564E-01 -1.73166378E-02 -3.07921224E-01  1.92323653E-03 -8.57818469E-02
 -9.99794355E-02  8.42746555E-02  9.44561011E-02  3.14683632E-01  7.79329830E-02
 -6.07418966E-03 -2.19035734E-01 -1.08839044E+00  1.29344274E+00 -2.85035565E-02
 -1.69347483E-01 -2.80453502E-02  1.41205843E-01 -3.67733019E-02  5.21845564E-01
 -3.50224746E-01  2.34450661E-01 -4.08365750E-03 -4.86427498E-01  7.72582292E-01
  5.01780306E-02 -1.97577824E-01 -1.54278465E-01  4.48902337E-01 -3.69305495E-01
 -5.92611957E-01  1.63372166E-01 -7.06810191E-01  7.63226152E-01 -8.90642938E-02
  1.01980269E-01  2.32805328E-01  2.95624343E-01 -3.65645184E-02  3.47071176E-01
 -2.92800119E-01 -2.79116694E-01 -2.47021712E-01 -1.71174753E-01  1.95341935E-01
  2.56294855E-01  4.07559308E-01 -1.57857470E-02  8.86927322E-02 -7.04703064E-01
 -2.27389992E-01 -1.29465390E-01  1.15825329E-01  7.43560381E-01  5.03335872E-01
  2.84794374E-01 -1.99291226E-01  1.13247022E-01 -2.08266947E-01 -3.14152961E-01
 -3.48934253E-02  2.44749413E-01  2.26365884E-01 -4.86467038E-01 -4.13821636E-01
  1.27099560E-01 -2.69423177E-01  5.75970229E-01  9.11999373E-01  2.61249250E-03
  6.08575789E-02  4.58321798E-01  4.68601471E-02 -3.42918236E-01 -1.48576766E-01
 -5.19192213E-01  1.57681323E-01  8.33229999E-01 -1.77013453E-01  4.75414250E-01
 -2.02158827E-01 -3.86847523E-01 -1.38897180E-02  1.94412562E-01  2.77891191E-02
  5.12646711E-01 -8.32854456E-03 -1.34275406E-01 -3.42812079E-02 -7.95452330E-01
  3.84761445E-02 -3.05455221E-02  4.96713070E-02  1.96218299E-01 -4.67190848E-01
 -2.43557789E-01  7.02062616E-01 -2.42471038E-01  1.39404619E+00  3.08772535E-01
 -9.57700233E-02  2.27419651E-01 -5.71878833E-01 -5.65109431E-01  2.88463691E-02
 -4.33501832E-01 -2.91527975E-02 -1.62501384E-01  5.42189530E-01  7.15006436E-01
  5.22509694E-02  1.98458534E-01 -5.32473670E-01  6.78737035E-03 -2.05156861E-01
 -1.12190173E-01  2.22202188E-01 -6.48507530E-01  7.23770610E-01  1.40847774E-01
  1.69878774E-01  7.95864730E-01  6.80805528E-02 -1.93154480E-01 -4.11797532E-01
 -2.76045578E-01 -1.72709765E-02  2.88423499E-01 -7.81344595E-01 -2.57776493E-02
  1.48785859E-01 -4.18857432E-01  1.10461805E+00  5.87465542E-02 -3.05421744E-01
  4.60920546E-03 -5.75639985E-02  3.26840263E-01  4.32473595E-02 -3.33202663E-02
  3.44681291E-02 -6.14374247E-01 -2.50075933E-01 -1.38341311E-01 -5.27403961E-01
  1.89495467E-01  1.43677333E-01  1.70164948E-01  5.77729265E-02 -1.04492546E+00
 -2.07478899E-01  1.41479241E-02 -3.69728396E-01  1.17376935E+00  3.68096073E-01
 -8.74920135E-02  5.80771273E-01 -1.32995662E-02  8.61808015E-02  1.54380911E-03
  4.10627546E-01  2.90873827E-01  2.48013902E-01 -5.70627644E-02  5.14007779E-01
  5.63852251E-03 -2.48528487E-01 -1.41354865E-01 -1.10773383E+00 -6.14729237E-02
 -3.36692236E-02  6.74744617E-01  5.43431515E-02  6.24325109E-02  2.08368467E-01
 -9.05270147E-01 -9.64930150E-02 -1.23233235E-01 -3.99496765E-01 -7.73147652E-02
  1.29211960E+00 -1.03410777E-02  5.62871531E-01 -5.44376825E-03 -1.54050276E+00
  3.33268763E-02 -5.04816116E-01 -2.99227027E-01  1.46308741E-01 -3.17568663E-02
 -7.78110683E-01  1.54591558E+00 -2.65076942E-03  8.86434400E-01  6.88658438E-02
 -4.18065844E-02  5.31555931E-03 -1.99057322E+00 -1.09521585E-01  1.65365946E-02
 -1.15595280E+00  1.05499429E-03 -1.23833865E+00 -7.62911018E-04  3.30146229E-01
  2.18705801E-01  3.17305378E+00  3.13037428E-02  5.66602277E-01 -1.30134051E+00
  3.12531801E-01 -1.53526423E-01 -9.97474048E-01 -4.30486827E-01
Orthonormal basis                          R   N=         484
  2.44128527E-02  9.17872661E-02  1.19336663E-02  1.63339322E-02  5.97212374E-02
  1.44694736E-01  2.96775266E-02  4.26278788E-02  1.46277743E-01  4.93575738E-02
  1.76967706E-01  5.36997969E-03  6.45330312E-02 -3.92530255E-02  2.29657987E-01
  1.47940139E-02  9.76612356E-02 -8.27557743E-02  5.23683722E-02  1.03783984E-01
  1.99238763E-01  2.32544410E-01  6.45758535E-02  1.85688609E-01  1.05275883E-01
 -3.96967668E-02  3.84310112E-03  2.14364123E-01  2.01235599E-01 -7.75554556E-02
 -3.14255280E-02 -3.38999008E-02 -9.17586729E-02  6.05580683E-02 -1.11361920E-01
 -8.93948912E-02 -6.67322177E-02  1.20450822E-01 -1.46696103E-01 -1.85571459E-01
  2.10223486E-01  2.65535560E-01 -1.66207625E-01 -8.69508232E-02 -5.78149456E-02
 -1.41956859E-01  1.71577092E-01  7.96755122E-02 -1.31114391E-01 -1.33012882E-01
  2.76708684E-01  1.29185140E-01 -1.64341694E-01 -1.19963826E-02 -3.34540623E-02
  1.21322754E-01  1.51934398E-01  1.59245613E-01 -5.02144278E-02  1.98435412E-01
  1.94073039E-01  2.23065185E-01  1.72230357E-01  1.61879606E-01  1.14470672E-01
  4.41746029E-02  1.06392201E-01  2.24723452E-01 -9.57699041E-02  1.83930819E-01
 -9.98299873E-02  1.96279826E-01 -1.31955414E-01  2.53011717E-01 -1.71779633E-01
 -1.03509760E-01 -2.19352990E-01 -8.73234598E-02  2.23250036E-01 -7.35341544E-02
 -1.96910386E-01 -1.20242893E-01  2.84447175E-01 -1.43422393E-01 -2.79252114E-02
 -9.09296998E-03  5.02525554E-02 -1.03927130E-02 -1.11657145E-01 -1.97815882E-01
  8.71669439E-02  1.32398229E-01  3.31588338E-01 -1.94800420E-01  9.99620072E-02
  1.51648490E-01  3.14673993E-01 -6.80027716E-02 -1.18564050E-01  1.25485735E-01
  8.46754354E-02 -2.99750848E-01 -1.26470495E-01  1.42354594E-01  1.07428020E-01
 -2.61846083E-01 -3.06755666E-02 -6.28392952E-02 -1.20645769E-02 -7.59123169E-02
  1.15637021E-01  1.46857863E-01 -1.27646544E-01 -2.09831327E-01 -7.04866523E-02
  8.30734153E-02 -1.11717832E-01 -1.72426037E-01 -6.18977001E-02 -1.27831628E-02
 -1.70430360E-02  5.21267123E-01  1.24839020E-01 -1.21297271E-02 -1.97011719E-02
  4.25973286E-01  6.61193677E-02 -2.57559798E-02 -2.61190707E-01 -1.58525270E-01
  7.33190317E-02 -8.47566845E-03  5.57376864E-02  6.84921525E-02 -6.86084330E-02
  5.01583560E-01 -2.94159571E-02  4.63322149E-02 -5.79703620E-02  4.02224946E-01
 -6.66493655E-03  8.66249243E-02  1.09862491E-01  2.05387351E-01 -3.34591398E-01
  9.76194011E-02  1.03261194E-01  1.63862269E-01 -1.88509666E-01  7.64359652E-02
 -9.96743907E-02 -5.18115034E-02 -1.62287836E-01  3.31621799E-02  3.38816430E-01
  1.84639753E-01  6.54593877E-01  7.30713240E-03  1.74751074E-02  2.34391164E-02
  2.62035263E-01  3.58562218E-03  1.64169522E-02  5.22304453E-02  3.03285924E-02
 -1.33648361E-01  9.00926934E-03  3.56782122E-02  6.52441161E-03 -6.38693298E-02
  3.41656095E-04  1.62904879E-02 -3.94683504E-01 -2.70052129E-01  9.97191705E-03
 -2.94739032E-02 -3.06552439E-01 -9.40842410E-02  9.84618545E-02  2.80144852E-02
 -4.65607832E-01  1.52969681E-02  2.69433867E-02  1.03195627E-02 -1.78146433E-01
  5.46254990E-01  1.73971680E-01 -7.82213376E-03  1.97187305E-02 -4.65770279E-01
 -2.07581470E-02 -3.85204059E-03 -8.85066072E-03 -1.86987681E-01 -7.89071506E-02
 -3.87576970E-02  3.76788026E-02 -9.24601638E-02  5.30838995E-01 -3.02205628E-02
 -1.94702183E-01 -5.04152881E-03  2.67673236E-01 -1.14401787E-01 -1.45568109E-02
  8.90950243E-04  6.04704017E-02  7.21174468E-01 -2.96543211E-02 -1.09670958E-02
  1.63857145E-01  1.44061630E-01 -1.25397233E-01  1.98148387E-03  5.88201371E-02
  2.18425373E-02  1.96723944E-01  6.07323250E-02 -4.56601542E-02 -1.44260803E-01
  6.98110913E-01 -3.03678980E-01 -1.29082290E-01  2.04625047E-02 -3.76357998E-01
 -2.14704413E-01  1.40834135E-02 -5.43176299E-04  1.32474457E-02 -3.49182389E-01
  1.44941637E-01 -2.25211338E-02 -1.04512888E-01 -4.49386430E-01  7.11311465E-02
  3.22709259E-03 -4.64225368E-02  1.05913032E-02  1.29212917E-01  3.69650148E-02
  7.98523083E-02  2.82617109E-02 -2.96306303E-02  5.70118752E-02 -3.91954242E-02
  5.64678877E-01 -3.27298317E-02  1.68594939E-02  2.69950079E-02 -3.28049755E-01
  3.33965125E-02 -1.87821356E-01  3.74891549E-01 -2.00446481E-02  7.68266291E-01
  1.13292165E-01  9.04315700E-02  1.22727216E-02 -4.54667419E-01 -6.81383112E-02
  4.05861134E-02 -1.61811541E-02  3.54969607E-02 -4.18213828E-01  3.93215775E-02
 -1.13340215E-01  4.91337268E-01  2.64555603E-02 -2.19633729E-02  3.62827645E-02
 -3.86474170E-01 -2.37243654E-02  7.90690408E-03  3.65037634E-03 -1.37600528E-02
  8.64447120E-01  2.49124431E-02  3.93083759E-02  1.62924104E-03 -7.63330639E-01
 -1.72080011E-02 -3.93278049E-02  4.11385849E-01 -5.71308638E-02 -7.78146601E-03
  1.44592140E-02  7.14598651E-03 -3.70880861E-02 -3.51340489E-02 -4.80466761E-01
 -5.12255342E-01 -1.05537592E-01  4.86422673E-02  5.48336704E-01  4.40826323E-01
 -1.01177278E-01  3.85741481E-01 -2.57961028E-02  1.54339026E-02  6.70474640E-01
 -1.38540078E-01  2.84962679E-02  2.39303577E-02 -6.48327782E-01  1.03586140E-01
 -1.14600817E-01 -4.07386811E-02 -3.42983855E-01 -2.73007986E-02  1.18459070E-01
 -2.60299332E-02 -5.50748862E-01  5.68653434E-01  7.52789316E-02  3.92509574E-02
  6.67660682E-01 -5.58344013E-01 -1.55557007E-01  6.50401151E-01  5.18097462E-02
  2.10627529E-01 -3.92397463E-01  3.34665728E-02 -6.23883380E-02 -1.36700043E-01
  3.05592272E-01  6.16669338E-02 -3.12836270E-02 -1.44127194E-01 -3.00119975E-01
 -3.38727629E-02  1.74129216E-01 -1.59201430E-03 -3.30381727E-01 -3.63450851E-01
 -5.92495370E-02  4.80599128E-04  4.64423396E-01  5.33840967E-01  1.13504164E-01
 -5.90891947E-01  1.35876746E-02  6.46334133E-01 -2.18244502E-01  2.90700830E-01
 -1.87954672E-02 -5.49376018E-01  4.45676793E-01 -2.46191317E-02  3.11124285E-02
 -4.70882181E-01  3.74914042E-01 -1.47747140E-01  8.30367881E-01 -4.70937612E-01
  8.69982610E-02 -1.45826935E-01 -3.30397350E-01  7.50843213E-01 -1.35537611E-01
  3.53852927E-01 -1.86080318E-02  1.09817982E-01  2.31884764E-01 -2.22586098E-01
 -2.19851793E-01 -1.01274426E-01 -3.75854745E-01  2.45831837E-01  3.53479118E-01
  3.42355512E-01 -5.54999599E-01  1.29017032E-01 -1.98496272E-01 -5.88544578E-02
  3.79244633E-01  5.42705137E-01  2.94300138E-02 -5.45844920E-02 -9.88009491E-02
 -8.18060336E-01 -5.13290302E-02  1.78987780E-01 -1.43387669E-02  8.82450830E-02
 -4.12950220E-01 -8.33880977E-02 -1.53626006E-01 -4.92642152E-02  7.18274271E-01
  1.24311854E-01  2.43493032E-01  8.73711248E-01 -5.26854880E-01  2.50620162E-02
 -9.97736280E-02  1.01372124E-02 -1.18460404E-01 -7.04801355E-02 -1.45089024E-01
  1.39015673E-01  1.48842362E-01  1.75865645E-01  3.80085080E-01 -3.04096955E-01
  8.20137708E-02 -7.58281726E-01 -2.34101364E-02 -1.80080656E-01  5.24265778E-02
  1.54629832E-01  3.93762155E-02 -9.70036185E-01 -1.96773564E-01  2.64397246E-01
 -4.43281489E-01  1.44418340E+00 -2.67538351E-01 -5.44795351E-02  7.45047599E-01
  2.45223073E-01 -4.60576721E-02 -9.09387634E-02 -7.67384178E-01 -6.27918766E-01
  1.30092551E-01  4.39253246E-01  4.94822962E-03  4.12518244E-02  5.70214627E-02
 -2.41574364E-01 -1.60938336E-01 -2.61301270E-01 -8.68064135E-02 -8.35701539E-02
  3.99759177E-01 -5.98808082E-01  1.33965337E+00  7.18755933E-01 -6.48677884E-01
  3.08511774E-03 -1.04713549E+00 -3.22129050E-02 -3.88253283E-02 -2.36748180E-01
  2.12486640E+00  7.70531088E-02  8.65142408E-02  1.21494514E+00  1.45515898E-02
 -2.82353063E-01  2.10179659E-03 -2.76040106E-01 -2.07964424E-01  5.65862588E-01
 -1.75975268E-02  8.80578432E-01  1.33888045E+00 -1.67328623E-01  2.21488538E-02
  1.52931252E-01 -1.93496588E+00  2.10540817E-02  5.44813877E-01  3.34974027E-02
 -2.69189135E-02  8.20858025E-02 -1.51170814E+00 -9.47741595E-02  6.89709123E-03
 -1.16429945E+00 -3.57338418E-02 -1.30808956E+00  2.43112176E-03 -3.34572906E-02
  1.44317515E-01  3.92490427E+00  5.41647287E-03  1.20754139E+00 -1.10743449E+00
  1.12795271E-01  6.87374603E-02 -8.05720425E-01 -1.66121120E+00
Total SCF Density                          R   N=         253
  2.09148035E+00 -1.99706789E-01  5.82174415E-01  2.31048779E-02 -6.32815409E-02
  5.23123281E-01  3.63525903E-04 -8.69547907E-03 -6.21568401E-03  9.26026931E-01
  2.73049633E-02 -6.17251402E-02  2.15213560E-02  2.11833632E-02  4.40912649E-01
 -2.95430790E-01  6.25145812E-01 -8.93679957E-02  1.44670551E-02 -1.37173549E-01
  6.88060185E-01  8.38092636E-03 -3.37653198E-02  3.41061633E-01 -4.00239101E-03
  2.15050934E-02 -5.15289176E-02  2.22717430E-01 -1.57359111E-03 -3.23963803E-03
 -2.02314008E-03  6.41382959E-01  2.66773604E-02  1.08758238E-02 -1.00335321E-03
  4.44614681E-01  6.33322555E-03 -3.23459337E-02  3.60703816E-02  2.67036511E-02
  2.46067918E-01 -7.40247109E-02  2.77807966E-02  2.52459169E-02  1.39277940E-01
 -4.98937779E-03  1.57647436E-02  5.24238513E-03  4.00978030E-04 -1.84401860E-02
  2.90789667E-02  4.15393074E-03 -1.64419751E-03 -9.21586956E-05  2.08780833E+00
  1.51416303E-02 -4.59034002E-02 -8.35975500E-03 -1.23907246E-03  2.92986074E-02
 -6.53510389E-02 -7.61180305E-03  1.49856047E-03  9.70626284E-05 -1.83154605E-01
  5.41077766E-01 -7.57188684E-03  2.18746401E-02 -3.03507553E-02  9.64400526E-04
 -1.29449400E-02  3.55001997E-02 -2.50447088E-02 -5.11441772E-04 -1.12735660E-02
 -9.73394620E-04 -3.77368999E-03  9.02641453E-01  2.91028787E-03 -1.22561813E-03
  5.79727154E-03 -9.11307706E-02 -4.68272340E-02 -6.82097515E-03  9.07924137E-03
 -6.34640175E-02 -3.25443251E-02  2.13118053E-02 -3.10674568E-02  4.95227711E-04
  7.17980740E-01  1.17616592E-02 -2.43631247E-02 -4.96632593E-03  3.89890008E-02
 -4.27664598E-01  4.44816924E-02 -1.28881082E-02  1.48839017E-02 -2.39389831E-01
 -2.49674007E-02  6.41575743E-02  2.79184439E-03 -5.93921133E-02  4.58296454E-01
  3.11784208E-02 -7.37777375E-02 -3.63555565E-02 -1.42137022E-03  6.62209425E-02
 -9.46223140E-02 -2.84944356E-02  1.56047667E-03  2.19384128E-02 -2.69615828E-01
  5.31433839E-01  2.29659473E-02 -3.54017137E-01  7.25800571E-02  6.78172170E-01
 -4.82541835E-03  1.46031189E-02 -3.74976033E-02  1.47173349E-03 -3.49348954E-03
  2.39792199E-02 -2.81821782E-02  2.62154188E-04 -5.67178475E-03 -2.13084396E-03
 -1.39015215E-04  6.53529214E-01 -9.14138978E-04 -3.49000074E-03  2.08094871E-02
  4.73739708E-01 -7.65053262E-03  1.73292336E-02  6.06144921E-03 -5.33335009E-02
  1.88282574E-02  1.14689823E-02  7.18802635E-03 -3.61471121E-02  1.02410463E-02
  3.30661356E-02 -8.72055028E-02  3.86500523E-03  2.72336312E-01 -7.47401120E-02
 -2.04739176E-01  2.39449045E-03  1.18580523E-01 -1.34493718E-02  2.05627779E-02
  1.22279615E-02  2.80480571E-02 -2.58099888E-01  6.36955066E-02  2.49903652E-03
  1.25130616E-02 -1.43665922E-01 -1.68484535E-02  5.51464448E-02 -7.26809662E-03
 -5.96383683E-02  2.78164525E-01  6.66704303E-02 -9.11590105E-03 -5.54133107E-02
  1.73258478E-01 -1.57422770E-03 -1.72770120E-03  2.69969431E-01 -2.97602122E-04
 -6.43676434E-03 -1.12021106E-02  1.76498773E-01  8.01828188E-04  9.37052322E-03
  2.47962381E-03 -4.28554967E-03 -8.49699483E-02 -2.16663626E-03  1.24433211E-02
 -2.09720703E-02 -6.98374475E-02  2.97373710E-05  1.83214858E-02  1.47099231E-01