H2O2 B2PLYP Freq                                                        
Freq      RB2PLYP-Full                                                6-31G               
Number of atoms                            I                4
Info1-9                                    I   N=           9
          11          11           0           0           0         100
           6           2        -702
Charge                                     I                0
Multiplicity                               I                1
Number of electrons                        I               18
Number of alpha electrons                  I                9
Number of beta electrons                   I                9
Number of basis functions                  I               22
Number of independent functions            I               22
Number of point charges in /Mol/           I                0
Number of translation vectors              I                0
Atomic numbers                             I   N=           4
           8           8           1           1
Nuclear charges                            R   N=           4
  8.00000000E+00  8.00000000E+00  1.00000000E+00  1.00000000E+00
Current cartesian coordinates              R   N=          12
  0.00000000E+00  0.00000000E+00  0.00000000E+00  0.00000000E+00  0.00000000E+00
  2.83458920E+00  1.88972613E+00  0.00000000E+00  0.00000000E+00  0.00000000E+00
  1.32280829E+00  1.88972613E+00
Force Field                                I                0
Int Atom Types                             I   N=           4
           0           0           0           0
MM charges                                 R   N=           4
  0.00000000E+00  0.00000000E+00  0.00000000E+00  0.00000000E+00
Integer atomic weights                     I   N=           4
          16          16           1           1
Real atomic weights                        R   N=           4
  1.59949146E+01  1.59949146E+01  1.00782504E+00  1.00782504E+00
Atom fragment info                         I   N=           4
           0           0           0           0
Atom residue num                           I   N=           4
           0           0           0           0
Nuclear spins                              I   N=           4
           0           0           1           1
Nuclear ZEff                               R   N=           4
 -5.60000000E+00 -5.60000000E+00 -1.00000000E+00 -1.00000000E+00
Nuclear QMom                               R   N=           4
  0.00000000E+00  0.00000000E+00  0.00000000E+00  0.00000000E+00
Nuclear GFac                               R   N=           4
  0.00000000E+00  0.00000000E+00  2.79284600E+00  2.79284600E+00
MicOpt                                     I   N=           4
          -1          -1          -1          -1
Number of contracted shells                I               10
Number of primitive shells                 I               28
Pure/Cartesian d shells                    I                1
Pure/Cartesian f shells                    I                0
Highest angular momentum                   I                1
Largest degree of contraction              I                6
Shell types                                I   N=          10
           0          -1          -1           0          -1          -1
           0           0           0           0
Number of primitives per shell             I   N=          10
           6           3           1           6           3           1
           3           1           3           1
Shell to atom map                          I   N=          10
           1           1           1           2           2           2
           3           3           4           4
Primitive exponents                        R   N=          28
  5.48467166E+03  8.25234946E+02  1.88046958E+02  5.29645000E+01  1.68975704E+01
  5.79963534E+00  1.55396162E+01  3.59993359E+00  1.01376175E+00  2.70005823E-01
  5.48467166E+03  8.25234946E+02  1.88046958E+02  5.29645000E+01  1.68975704E+01
  5.79963534E+00  1.55396162E+01  3.59993359E+00  1.01376175E+00  2.70005823E-01
  1.87311370E+01  2.82539436E+00  6.40121692E-01  1.61277759E-01  1.87311370E+01
  2.82539436E+00  6.40121692E-01  1.61277759E-01
Contraction coefficients                   R   N=          28
  1.83107443E-03  1.39501722E-02  6.84450781E-02  2.32714336E-01  4.70192898E-01
  3.58520853E-01 -1.10777550E-01 -1.48026263E-01  1.13076702E+00  1.00000000E+00
  1.83107443E-03  1.39501722E-02  6.84450781E-02  2.32714336E-01  4.70192898E-01
  3.58520853E-01 -1.10777550E-01 -1.48026263E-01  1.13076702E+00  1.00000000E+00
  3.34946043E-02  2.34726953E-01  8.13757326E-01  1.00000000E+00  3.34946043E-02
  2.34726953E-01  8.13757326E-01  1.00000000E+00
P(S=P) Contraction coefficients            R   N=          28
  0.00000000E+00  0.00000000E+00  0.00000000E+00  0.00000000E+00  0.00000000E+00
  0.00000000E+00  7.08742682E-02  3.39752839E-01  7.27158577E-01  1.00000000E+00
  0.00000000E+00  0.00000000E+00  0.00000000E+00  0.00000000E+00  0.00000000E+00
  0.00000000E+00  7.08742682E-02  3.39752839E-01  7.27158577E-01  1.00000000E+00
  0.00000000E+00  0.00000000E+00  0.00000000E+00  0.00000000E+00  0.00000000E+00
  0.00000000E+00  0.00000000E+00  0.00000000E+00
Coordinates of each shell                  R   N=          30
  0.00000000E+00  0.00000000E+00  0.00000000E+00  0.00000000E+00  0.00000000E+00
  0.00000000E+00  0.00000000E+00  0.00000000E+00  0.00000000E+00  0.00000000E+00
  0.00000000E+00  2.83458920E+00  0.00000000E+00  0.00000000E+00  2.83458920E+00
  0.00000000E+00  0.00000000E+00  2.83458920E+00  1.88972613E+00  0.00000000E+00
  0.00000000E+00  1.88972613E+00  0.00000000E+00  0.00000000E+00  0.00000000E+00
  1.32280829E+00  1.88972613E+00  0.00000000E+00  1.32280829E+00  1.88972613E+00
Constraint Structure                       R   N=          12
  0.00000000E+00  0.00000000E+00  0.00000000E+00  0.00000000E+00  0.00000000E+00
  2.83458920E+00  1.88972613E+00  0.00000000E+00  0.00000000E+00  0.00000000E+00
  1.32280829E+00  1.88972613E+00
Num ILSW                                   I              100
ILSW                                       I   N=         100
           0           1           0           0           2           0
           0           0           0           0         419 67108864000
           0           0           0           0           2           0
           0           0           0           0           1           0
           1           1           0           0           0           0
           0           0      100000           0          -1           0
           0           0           0           0           0           0
           0           0           0           1           1           0
           0           0           1           0           0           0
           0           0           4          50           0           0
           0           0          47           0           0           0
          -1          -1          -1           0           0           0
           0           0           0           0           0           0
           0           0           0           0           0           0
           0           0           0           0           0           0
           0           0           0           0           0           0
           0           0           0           0
Num RLSW                                   I               50
RLSW                                       R   N=          50
  4.70000000E-01  4.70000000E-01  7.30000000E-01  7.30000000E-01  5.30000000E-01
  0.00000000E+00  0.00000000E+00  1.00000000E+00  0.00000000E+00  0.00000000E+00
  0.00000000E+00  0.00000000E+00  1.00000000E+00  0.00000000E+00  0.00000000E+00
  0.00000000E+00  0.00000000E+00  1.00000000E+00  0.00000000E+00  0.00000000E+00
  0.00000000E+00  0.00000000E+00  1.00000000E+00  0.00000000E+00  0.00000000E+00
  0.00000000E+00  0.00000000E+00  1.00000000E+00  0.00000000E+00  0.00000000E+00
  0.00000000E+00  0.00000000E+00  1.00000000E+00  0.00000000E+00  0.00000000E+00
  0.00000000E+00  0.00000000E+00  0.00000000E+00  2.70000000E-01  2.70000000E-01
  4.70000000E-01  4.70000000E-01  7.30000000E-01  7.30000000E-01  2.31488553E+12
  2.31488553E+12  2.31488553E+12  2.31488553E+12  5.30000000E-01  2.31488553E+12
MxBond                                     I                2
NBond                                      I   N=           4
           2           2           1           1
IBond                                      I   N=           8
           2           3           1           4           1           0
           2           0
RBond                                      R   N=           8
  1.00000000E+00  1.00000000E+00  1.00000000E+00  1.00000000E+00  1.00000000E+00
  0.00000000E+00  1.00000000E+00  0.00000000E+00
Virial Ratio                               R      1.999121896279775E+00
SCF Energy                                 R     -1.511116087487227E+02
MP2 Energy                                 R     -1.512039963658152E+02
Total Energy                               R     -1.512039963658152E+02
Post-SCF wavefunction norm                 R      1.519804027885747E+00
RMS Force                                  R      1.073921772765414E-01
RMS Density                                R      5.216047734851636E-09
External E-field                           R   N=          35
  0.00000000E+00  0.00000000E+00  0.00000000E+00  0.00000000E+00  0.00000000E+00
  0.00000000E+00  0.00000000E+00  0.00000000E+00  0.00000000E+00  0.00000000E+00
  0.00000000E+00  0.00000000E+00  0.00000000E+00  0.00000000E+00  0.00000000E+00
  0.00000000E+00  0.00000000E+00  0.00000000E+00  0.00000000E+00  0.00000000E+00
  0.00000000E+00  0.00000000E+00  0.00000000E+00  0.00000000E+00  0.00000000E+00
  0.00000000E+00  0.00000000E+00  0.00000000E+00  0.00000000E+00  0.00000000E+00
  0.00000000E+00  0.00000000E+00  0.00000000E+00  0.00000000E+00  0.00000000E+00
IOpCl                                      I                0
IROHF                                      I                0
Alpha Orbital Energies                     R   N=          22
 -1.98375605E+01 -1.97958373E+01 -1.37069658E+00 -1.05291388E+00 -6.34391273E-01
 -6.01467187E-01 -5.07079815E-01 -4.06178431E-01 -3.98889664E-01  3.64047294E-02
  9.54638293E-02  2.22395061E-01  8.57531976E-01  9.30080987E-01  9.50491842E-01
  9.73151228E-01  1.05637745E+00  1.07644048E+00  1.12904606E+00  1.17145282E+00
  1.54772401E+00  1.70194185E+00
Alpha MO coefficients                      R   N=         484
  9.95434409E-01  2.56208588E-02  1.62326405E-03  3.39313475E-04  1.61150222E-03
 -1.18855345E-02 -2.15192937E-03 -5.99710500E-04 -2.73932316E-03  1.60319107E-03
  2.60006554E-04  5.01598793E-05  8.62276023E-05 -2.41173952E-04  6.69734296E-04
 -9.50078037E-06 -9.74462750E-04 -1.35243797E-03  6.91826457E-04  2.42005569E-03
  6.04644136E-04  2.16390169E-03 -1.64057763E-03  1.49971255E-04  9.92113614E-06
  1.69795713E-04  2.62166302E-04  9.37777188E-04 -4.19013104E-05 -7.76695289E-04
  1.34020421E-03  9.95396733E-01  2.55024377E-02  1.15387517E-04  1.37958667E-03
 -2.01588296E-03 -1.17868929E-02 -5.70890320E-05 -1.84588491E-03  3.02161640E-03
 -5.42751425E-05  1.56312760E-04 -1.16861334E-04  4.44999896E-03 -1.42017760E-01
  3.07424697E-01  5.50899414E-02  2.75840657E-02  1.10287133E-01  3.08244924E-01
  3.54544124E-02  2.25972965E-02  5.47906456E-02 -1.43026932E-01  3.12880914E-01
  8.60289083E-03  7.71628575E-02 -1.29906620E-01  2.67846726E-01  9.05775208E-03
  2.83691332E-02 -3.73732298E-02  7.50482193E-02 -1.39945235E-02  1.76692819E-01
 -4.92101758E-02 -1.64999017E-01  3.71070794E-01  1.17598671E-01  1.68400806E-04
 -5.59355230E-02  4.42337625E-01  6.23650081E-02  1.13572358E-02  1.35892638E-02
  1.52866256E-01 -3.50112253E-01  3.24768035E-03 -1.06731902E-01  1.39855870E-02
 -3.82989812E-01 -2.31331568E-03 -4.01868457E-02  2.83049752E-02  1.39512508E-01
  8.95803068E-04 -1.32401825E-01  2.63788524E-03  2.13923733E-02 -4.80322563E-02
  2.69135443E-01 -2.51558920E-01 -9.49271906E-02 -9.60302160E-02  1.40224049E-01
 -1.60261166E-01 -5.07616404E-02 -8.63805636E-02  1.92432003E-01  1.11907022E-01
 -2.89805647E-01  1.85812718E-01  3.47470999E-01  7.47197469E-02 -1.31673091E-01
  7.55568299E-02  1.61918820E-01  9.77547578E-02 -2.31202660E-01 -8.61668812E-02
  6.41252775E-02 -1.46904773E-01  3.95955081E-01  1.93203441E-01 -1.52324400E-02
 -2.42418928E-01  2.33207288E-01  1.20509424E-01 -6.61402544E-03  2.86658000E-02
 -5.74337935E-02  1.76844971E-01  2.71439000E-01 -5.55706083E-03 -1.44059551E-01
  1.20386596E-01  1.41353827E-01  1.67631027E-02  2.01212239E-01  1.04124686E-01
  1.53149570E-01  7.79966684E-02  3.68632273E-02 -1.06458197E-01  7.61926271E-02
 -1.56934160E-01  4.32065476E-01 -7.69532759E-02  6.45717811E-02 -8.71261794E-02
  3.13069530E-01  4.42903525E-02 -1.17431274E-01  1.15020929E-01 -1.55558507E-01
 -3.63278524E-01 -1.22583299E-01  8.97545111E-02 -7.74176729E-02 -2.24565381E-01
 -8.72443155E-03 -1.64327333E-02 -8.46341955E-03 -1.34516148E-01 -1.29559602E-02
  1.49870583E-02 -1.27660521E-01  4.78929476E-01  5.55802208E-02  1.05541572E-01
 -6.94003842E-02  3.57030198E-01  7.18298673E-02 -1.55143736E-02  3.31196248E-02
  3.48204408E-01 -3.29591605E-01  6.92484432E-02  4.32000100E-02  2.56174379E-01
 -2.20686506E-01  5.20459708E-02 -8.62832517E-02 -4.11797929E-02 -1.00590911E-01
 -7.49389568E-03 -2.55110711E-02  7.24768874E-02 -2.10907474E-01 -2.95899901E-01
 -1.34780049E-01  5.77414203E-02 -1.31401503E-01 -2.25133390E-01 -1.26838702E-01
  1.06408723E-02 -3.00876375E-02  5.22083234E-01  2.19270247E-01 -1.42618650E-02
 -9.42826773E-03  3.80820514E-01  1.42800540E-01 -3.02637285E-02 -1.06072125E-01
 -4.85924552E-02  5.71788347E-02  3.63435922E-02 -6.30556134E-02  1.59388390E-01
  3.95682338E-02 -4.65498418E-02  4.75035174E-01  4.79145069E-01  9.66693703E-02
 -6.82991547E-02  5.32081214E-01  4.15114106E-02 -1.14925849E-01  1.91780998E-02
  1.21334863E-01  5.01995570E-01 -3.14701645E-01  3.65959589E-02  1.19074906E-01
  5.53450378E-01 -8.83481479E-03 -3.77701390E-01 -8.34984493E-02  1.40214382E-01
  5.30622834E-02 -7.84342316E-02 -3.12719952E-01 -4.56487576E-02  1.44610122E-01
 -7.60793191E-01 -5.12217604E-01 -7.28211892E-02  1.49030090E-01  3.86511736E-02
 -8.53856463E-02 -2.64603845E-02 -3.51891353E-02  1.07244715E-01 -4.35893765E-01
 -3.27616772E-02 -9.76803433E-02  1.76183091E-01  1.51955320E-01  1.28060047E+00
 -3.25296074E-03  5.20361896E-01  1.38766469E-02 -3.75356412E-02  1.58196607E-01
 -1.38390249E-01 -9.68624074E-02 -1.84307824E-01  2.92264215E-01 -2.67171656E-01
 -2.28731314E-01  5.03414594E-02 -5.84828324E-02  1.22928245E-02 -2.44045071E-01
 -3.73130644E-02 -1.01376430E+00  2.82450110E-02 -5.29701763E-01  9.06242207E-02
 -8.82669934E-02 -7.90158659E-01  1.04722370E-01  2.12316230E+00  2.13532527E-02
 -1.47852105E-01 -4.00273093E-01 -4.57297941E-02 -3.37836366E-01  2.73128864E-01
 -1.09547077E-02  4.50186019E-02  4.49618541E-01 -1.64251755E-02  1.10849705E-01
  1.03018742E-01 -9.22794694E-02 -1.29178455E-01 -1.42620927E-01 -1.52557228E-02
  2.32012095E-01  9.02250830E-02  1.13298877E+00 -9.45927371E-01 -3.11408557E-01
  1.95985902E-01 -2.93255389E-02  8.49616351E-02 -3.39370637E-01 -3.46806138E-01
 -3.76861364E-01  4.87387787E-01  4.21247265E-01  3.79237127E-01  7.76226073E-01
  4.69122951E-02 -9.12038951E-02 -3.48685651E-01  3.00934947E-02 -6.64295163E-02
 -5.51367885E-01  3.04847426E-01 -5.59625032E-01  8.14060218E-01 -1.88025825E-01
  3.97479285E-02  8.54239169E-01 -4.03392980E-01  1.76430101E-02 -9.21621291E-02
 -9.60594781E-02 -6.63153357E-01  3.02966165E-01 -1.11344464E-01  9.08135854E-02
  7.46581747E-01 -5.92637348E-01 -4.28260162E-02  3.07393798E-01  9.08818929E-02
 -3.12220273E-01  4.58485520E-01  1.77253814E-01 -1.06982003E-01  1.93530012E-01
 -7.32203240E-01  1.12726744E-01 -1.07329162E-01  1.73634085E-01 -4.11274518E-01
 -3.60964731E-02  3.74091966E-01 -1.91132169E-01  5.67673752E-02 -7.60188937E-03
 -4.23837551E-01  2.36722543E-01 -9.80927885E-02 -1.06100869E-01 -3.59322293E-02
  1.02437993E-01 -6.34222220E-01 -3.81620765E-01 -6.68376503E-02  3.09771557E-01
  6.67564169E-01  8.28674818E-01 -3.40307294E-01 -2.25357539E-01  3.59525459E-04
 -6.22957412E-01  7.07460575E-02  4.88838345E-02 -3.32788811E-01  1.11620152E-01
  2.46258625E-01  7.28762378E-02 -3.50436629E-02 -3.89222578E-01 -3.11765251E-01
 -4.49837361E-01 -6.88149923E-04  5.89985314E-04 -5.27360226E-01  2.93028735E-01
  5.01782680E-01 -2.30741318E-02  7.43133184E-01 -5.52883882E-01 -6.95099120E-01
  5.03694799E-01 -5.77393604E-01  2.67006767E-01  3.73546956E-01  1.50531795E-03
  2.29467541E-03 -4.65029650E-01  4.94405415E-01 -7.73550292E-03 -1.46675885E-03
  7.76283017E-01 -7.51536928E-01 -1.94681860E-01  1.26026008E-02 -4.77037602E-02
  2.31432997E-01 -4.17289549E-01  3.80532048E-01 -5.88860249E-02 -3.85817650E-01
  2.41801938E-01 -3.06693652E-01 -1.20995968E-01 -2.49290341E-01  6.25398972E-01
 -8.53792199E-02 -3.36606996E-02  4.79690135E-01  4.17857268E-01 -8.00810533E-03
 -6.65825416E-01 -7.82971685E-01 -6.27925114E-01  2.42721685E-02  8.90225003E-01
 -2.01140726E-02  2.83481053E-01  1.29291316E-01 -7.05664065E-02  4.50207697E-01
 -4.84347318E-01 -1.22562375E-01  1.63004259E-01 -3.74395834E-01 -1.77053794E-01
  7.98414434E-01 -6.39504887E-02 -1.76314334E-01 -2.49150380E-02  3.17259814E-01
 -4.91679393E-01 -1.62850389E-02 -7.42849260E-04 -5.92661332E-01  9.33736071E-01
  8.65962507E-02 -2.96196115E-01 -3.12271763E-02  2.33739661E-01  9.66507751E-02
  6.75422681E-01  1.84908889E-01 -2.34831651E-01 -2.44944065E-01 -6.88659255E-01
 -6.57255240E-01 -2.56311318E-01 -4.02053023E-01 -6.70462996E-01  1.11245832E+00
  1.07264017E-02  4.70788380E-01  5.04490963E-03 -1.54191562E-01 -7.48694032E-02
 -1.29415450E+00 -1.47033059E-01  3.58649024E-01 -8.00593317E-01  4.53987135E-02
 -1.67233426E+00  3.11523817E-02 -5.65407516E-02  2.34974175E-01  3.06903249E+00
 -2.17782490E-02  4.12066939E-01 -1.29063158E+00  2.43017518E-01  1.42670262E-02
 -2.51261227E-01 -9.71053807E-01  3.59192816E-02 -1.56318541E+00 -1.10761793E-01
 -1.01376125E-01 -3.70087064E-01  2.56711416E+00  6.76405115E-01  2.92758605E-01
  9.72603788E-01  2.05967823E-02 -3.16184578E-01 -1.61773844E-02 -4.43462069E-02
  1.84608890E-01  2.70562642E-01 -6.09093925E-02  5.86734708E-01  1.90415551E-01
 -6.95753641E-01 -2.91229649E-01 -5.77989082E-01 -8.27442264E-01
Total SCF Density                          R   N=         253
  2.09006666E+00 -1.91595611E-01  5.47117797E-01  3.07594862E-02 -7.15806892E-02
  6.25331568E-01 -2.08262585E-03 -1.06191330E-02 -7.07376556E-04  8.85858076E-01
  2.16168065E-02 -6.98896079E-02  4.43433537E-02  4.53294748E-02  4.64946594E-01
 -3.03742029E-01  6.25560656E-01 -1.68733550E-01  6.28644755E-02 -2.62451126E-02
  7.58406587E-01  1.42370324E-02 -4.88923231E-02  3.61711488E-01  1.25597320E-02
  5.06142519E-02 -1.02679964E-01  2.10903497E-01 -6.94708423E-03 -1.10143825E-03
  4.85827609E-03  6.31010342E-01  5.55526602E-02  5.91168694E-02  1.26418755E-02
  4.53186654E-01 -8.33187754E-04 -3.24375036E-02  5.95328554E-02  7.16126448E-02
  3.33104214E-01  1.11545538E-02  5.20653890E-02  7.13112654E-02  2.50153178E-01
 -6.79005100E-03  1.74121795E-02  2.64646181E-03  1.19771519E-02  1.08387116E-03
  4.27206161E-02  3.05647202E-03  6.46883784E-03  2.23351159E-02  2.09048182E+00
  1.99874131E-02 -4.74140821E-02 -3.43231499E-03 -1.54690694E-02 -1.62732140E-02
 -1.04328752E-01 -6.16291521E-03 -1.17138452E-02 -5.50770970E-02 -1.94378237E-01
  5.54488988E-01 -3.12775693E-03  6.61850524E-03 -8.96054328E-02  9.67996451E-04
 -2.77322293E-02  1.70309751E-02 -5.57998079E-02  7.36178583E-04 -2.30681346E-02
  6.26571766E-05 -9.49541550E-03  9.01857852E-01  2.17683443E-02 -2.86473567E-02
  1.03157846E-02 -1.41727671E-01 -1.54454112E-01 -1.43103929E-01  5.51934122E-03
 -1.47600147E-01 -1.68984780E-01  1.47855706E-02 -1.81147114E-02 -4.58344514E-03
  7.11845352E-01  1.11966740E-02 -8.36767133E-03  1.75693302E-02  8.59962069E-02
 -3.67706637E-01 -3.18233319E-02 -1.07257259E-02  5.27248913E-02 -2.46546865E-01
 -2.96293280E-02  7.17300498E-02 -1.27585750E-02 -7.26345951E-02  3.77205460E-01
  3.83946930E-02 -8.45418351E-02 -1.33463990E-02 -1.30406219E-01 -5.82429965E-02
 -1.43728390E-01 -1.78726786E-02 -8.62168822E-02 -8.26204919E-02 -2.97862404E-01
  6.17682232E-01  2.09755745E-02 -1.51020831E-01  1.45790312E-01  7.54066983E-01
 -2.64251465E-03  5.07295933E-03 -7.63565329E-02  1.26258562E-03 -1.22147017E-02
  1.50574324E-02 -4.65879048E-02  1.23622369E-03 -1.18534977E-02 -1.31238253E-03
 -4.81381134E-03  6.56133064E-01 -5.84646893E-03 -1.65828684E-02  1.68133842E-02
  4.77737638E-01  8.48956571E-03 -1.07459781E-02  1.90476034E-02 -1.49179500E-01
 -9.84824220E-02 -7.94649210E-02  9.11053325E-03 -1.31745174E-01 -1.02888317E-01
  9.80156539E-03 -2.61443857E-02 -1.63809686E-03  3.98190970E-01 -3.73801730E-02
 -8.89900397E-02 -3.14574561E-03  2.29661757E-01 -1.24060455E-02  3.07623484E-02
  2.17368682E-02  1.04657946E-01 -2.06378885E-01  2.14526154E-02  1.62248534E-03
  6.86951307E-02 -1.36658153E-01 -8.88778778E-03  4.21110149E-02 -2.46335374E-02
 -2.42084963E-02  2.09613785E-01  6.60265453E-02 -2.21769514E-02 -1.64069142E-02
  1.24506024E-01 -2.62398920E-02  5.89398469E-02  3.53025486E-01 -1.66621432E-02
 -2.44599304E-02  1.18999687E-02  2.00703703E-01 -9.17312028E-03  1.96147891E-03
  4.28943103E-03 -8.80958976E-03 -6.32484026E-02  1.02585585E-02  3.97549557E-02
 -1.54233772E-02 -5.32044774E-02  1.64269953E-02  3.48573319E-02  2.21145474E-01
  2.83681018E-02 -5.25784360E-02  1.62259557E-01 -1.52474356E-02 -3.05894899E-02
 -8.89254810E-02  9.14532253E-02 -1.15136942E-02 -1.67020278E-02 -7.53457555E-03
  2.03422451E-02 -2.47247471E-02  8.46492349E-03  4.64522050E-02  3.11372987E-02
 -2.16371188E-02  9.66414519E-03  2.53892751E-02  8.94133426E-02  4.98550197E-02
  3.52416507E-03 -5.30174980E-03 -1.45651739E-02  5.76698926E-02  5.91084964E-02
 -5.13930030E-02  4.45181199E-04  1.98961830E-02  2.95157756E-03 -3.89423928E-02
  8.85833959E-02 -7.69388191E-03  3.66696418E-01 -1.46646626E-01 -1.64182075E-02
 -3.37018399E-03  1.86887901E-01 -6.06385320E-02 -1.82864593E-02 -1.54829440E-02
  2.78240031E-01  1.21393266E-02 -9.14132063E-03 -2.33244022E-02  8.43137112E-02
 -1.24026667E-01 -2.59953403E-02 -1.68395946E-02  4.59678031E-02 -9.21264815E-02
  3.21976227E-02 -4.56252551E-02  9.25855818E-03  1.46869385E-01  7.56107053E-02
 -7.91913751E-02  4.69297137E-03  7.62324388E-02  5.08780966E-02 -7.23377080E-03
  2.29632998E-03  5.35879598E-02  7.08658117E-02
Total MP2 Density                          R   N=         253
  2.09006795E+00 -1.91745321E-01  5.53958426E-01  3.01640652E-02 -6.77292909E-02
  6.32583328E-01 -1.78335624E-03 -1.00749875E-02 -5.67147706E-04  8.79541634E-01
  1.93694969E-02 -6.10553686E-02  3.82954901E-02  4.37883714E-02  4.85475904E-01
 -3.04619076E-01  6.19851963E-01 -1.73096276E-01  5.71816604E-02 -2.36004251E-02
  7.76126997E-01  1.45835399E-02 -4.68197743E-02  3.48946867E-01  1.35280838E-02
  4.59717157E-02 -1.09077523E-01  2.03048871E-01 -6.30027583E-03 -1.84059955E-03
  5.47668853E-03  6.17524808E-01  5.52617691E-02  5.43247336E-02  1.42558659E-02
  4.58019140E-01 -1.28953653E-03 -2.69303510E-02  5.58293632E-02  7.00253945E-02
  3.25490924E-01  7.41585027E-03  4.96513102E-02  7.20814878E-02  2.38031467E-01
 -7.02221456E-03  1.84715831E-02  2.39603297E-03  1.19888128E-02  2.92115643E-03
  4.30957994E-02  2.94444636E-03  7.23758519E-03  2.19300515E-02  2.09026200E+00
  2.06462574E-02 -5.01523436E-02 -2.81734070E-03 -1.59968382E-02 -1.70041604E-02
 -1.04650976E-01 -5.56295815E-03 -1.34238424E-02 -5.05813613E-02 -1.93401742E-01
  5.57445577E-01 -3.32085847E-03  6.86372313E-03 -9.22915612E-02  7.22649013E-04
 -2.62047092E-02  1.69845663E-02 -5.43956599E-02  6.44850117E-04 -2.08754394E-02
  2.51998577E-04 -9.80998960E-03  8.94064335E-01  2.10759530E-02 -2.89310717E-02
  1.04085166E-02 -1.44422774E-01 -1.52493068E-01 -1.37597087E-01  6.17049404E-03
 -1.49649393E-01 -1.63274971E-01  1.47634647E-02 -1.71700238E-02 -3.99479775E-03
  7.13937190E-01  8.67780553E-03 -5.42181263E-03  1.55038223E-02  8.65629492E-02
 -3.61301021E-01 -1.77527773E-02 -1.28752933E-02  5.31559263E-02 -2.34278044E-01
 -2.69227724E-02  6.37788448E-02 -1.03077976E-02 -6.73708259E-02  4.01381158E-01
  3.92118664E-02 -8.73818094E-02 -1.08145726E-02 -1.35470930E-01 -6.55526383E-02
 -1.46825696E-01 -1.72696576E-02 -9.59937271E-02 -8.33765562E-02 -2.98536895E-01
  6.08615853E-01  1.96699989E-02 -1.53257972E-01  1.37288724E-01  7.77705435E-01
 -2.58830648E-03  4.85371875E-03 -7.88407681E-02  1.43625525E-03 -1.10671841E-02
  1.40183535E-02 -4.50519624E-02  1.58185145E-03 -1.00715129E-02 -1.08322061E-03
 -5.46946539E-03  6.48029972E-01 -5.61183196E-03 -1.54992786E-02  1.59750555E-02
  4.90929486E-01  8.50127513E-03 -1.20518968E-02  1.94519862E-02 -1.51811496E-01
 -9.51972545E-02 -7.76221204E-02  9.97827927E-03 -1.35275790E-01 -9.86882978E-02
  1.06330252E-02 -2.70976624E-02 -1.11662371E-03  3.89593007E-01 -3.60662637E-02
 -9.31663603E-02 -2.90187568E-03  2.29166000E-01 -1.33337768E-02  3.01124311E-02
  1.95690688E-02  1.04448849E-01 -1.94319096E-01  2.98978311E-02  1.55708161E-04
  7.06822290E-02 -1.23589679E-01 -7.37495288E-03  3.66476531E-02 -2.29631632E-02
 -2.50193301E-02  2.11492263E-01  5.96739859E-02 -2.19788278E-02 -1.95173297E-02
  1.23599084E-01 -2.55797861E-02  5.81497685E-02  3.48926172E-01 -1.58250470E-02
 -2.29983120E-02  5.45639601E-03  1.95947571E-01 -8.53769393E-03  5.28066777E-03
  4.33620464E-03 -9.41452690E-03 -6.30850016E-02  8.78996478E-03  3.71696356E-02
 -1.42740218E-02 -5.34944324E-02  1.55716653E-02  3.18086503E-02  2.25460521E-01
  2.97709288E-02 -5.49427561E-02  1.68899038E-01 -1.76081601E-02 -2.74257802E-02
 -9.77796182E-02  9.67076093E-02 -1.33282659E-02 -1.16326652E-02 -8.12722290E-03
  2.06631338E-02 -1.99984743E-02  5.16550326E-03  4.33308769E-02  3.54618917E-02
 -1.77914545E-02  8.24153080E-03  2.25425254E-02  9.70275464E-02  5.85839112E-02
  3.76607669E-03 -6.38263638E-03 -1.37764761E-02  5.86914383E-02  5.41351547E-02
 -5.29190367E-02  2.10300769E-03  2.50330871E-02 -1.73156725E-04 -3.86228826E-02
  8.91137704E-02 -7.58869260E-03  3.58691769E-01 -1.45910210E-01 -2.56241925E-02
 -3.44572069E-03  1.83596616E-01 -5.90258652E-02 -1.83454771E-02 -1.77973268E-02
  2.85674540E-01  1.12050680E-02 -8.88714792E-03 -2.57285792E-02  9.94349165E-02
 -1.20445733E-01 -2.11268680E-02 -1.73095154E-02  6.06139620E-02 -8.71714440E-02
  3.30408725E-02 -4.69064948E-02  7.92922415E-03  1.49810482E-01  7.35004090E-02
 -9.23264619E-02  3.73228544E-03  7.69927120E-02  4.91499518E-02 -1.11861012E-02
 -3.23460438E-03  6.64855349E-02  8.10430164E-02
QEq coupling tensors                       R   N=          24
 -3.61335117E-01  4.02769584E-03  2.49095549E+00  4.69344113E-01  4.44803601E-01
 -2.12962037E+00  2.66917027E+00 -4.87881639E-02  4.87220644E-01 -1.20258537E-01
 -6.94015375E-01 -3.15639092E+00 -3.91413531E-01  1.22214211E-02  2.31902673E-01
  4.82209301E-02 -1.17506967E-02  1.59510858E-01  5.72912479E-01  1.23938569E-02
 -6.56084151E-01  2.60461145E-02  4.96271221E-01  8.31716717E-02
Mulliken Charges                           R   N=           4
 -4.75234516E-01 -3.58666824E-01  4.19172210E-01  4.14729131E-01
ONIOM Charges                              I   N=          16
           0           0           0           0           0           0
           0           0           0           0           0           0
           0           0           0           0
ONIOM Multiplicities                       I   N=          16
           1           0           0           0           0           0
           0           0           0           0           0           0
           0           0           0           0
Atom Layers                                I   N=           4
           1           1           1           1
Atom Modifiers                             I   N=           4
           0           0           0           0
Force Field                                I                0
Int Atom Modified Types                    I   N=           4
           0           0           0           0
Link Atoms                                 I   N=           4
           0           0           0           0
Atom Modified MM Charges                   R   N=           4
  0.00000000E+00  0.00000000E+00  0.00000000E+00  0.00000000E+00
Link Distances                             R   N=          16
  0.00000000E+00  0.00000000E+00  0.00000000E+00  0.00000000E+00  0.00000000E+00
  0.00000000E+00  0.00000000E+00  0.00000000E+00  0.00000000E+00  0.00000000E+00
  0.00000000E+00  0.00000000E+00  0.00000000E+00  0.00000000E+00  0.00000000E+00
  0.00000000E+00
Cartesian Gradient                         R   N=          12
 -3.48152882E-02  6.71945594E-02  1.36444045E-01  9.32719375E-03  1.60725242E-01
 -1.69240617E-01  7.31348964E-03  1.27244526E-02  3.21716845E-02  1.81746048E-02
 -2.40644254E-01  6.24887389E-04
Cartesian Force Constants                  R   N=          78
  3.49227747E-01 -9.79233543E-03  1.40481494E-02 -3.47338473E-02  1.15335668E-01
  4.42266145E-01 -3.28833708E-03  5.32946688E-03  3.56148064E-03 -1.08948658E-01
  3.34064503E-03  8.35195473E-02  8.00909417E-03 -2.84618053E-03  6.41611590E-01
  4.46556978E-02 -8.61293619E-02 -3.20856261E-01 -4.17633792E-02 -4.63676293E-01
  4.65113346E-01 -4.00536359E-01  8.81009732E-03  2.55028677E-02  2.85960290E-04
  3.42770094E-04 -6.15044433E-03  4.07983253E-01  2.65323442E-03 -2.14944374E-02
  3.97182633E-03 -6.78885491E-03  4.35397292E-03  2.28274720E-03 -1.21402331E-02
  1.52820312E-02 -2.24969690E-02  3.64477915E-03 -7.48034397E-03  3.81555693E-02
 -5.10969742E-03 -5.44406816E-02 -2.43545361E-02  6.08048020E-03  6.98511720E-02
  5.45969489E-02 -4.34722877E-03  5.66949891E-03  1.11951035E-01 -8.37234594E-04