H2O2 MP2 Frequency                                                      
Freq      RMP2-FC                                                     6-31G               
Number of atoms                            I                4
Info1-9                                    I   N=           9
          11          11           0           0           0         100
           6           2           1
Charge                                     I                0
Multiplicity                               I                1
Number of electrons                        I               18
Number of alpha electrons                  I                9
Number of beta electrons                   I                9
Number of basis functions                  I               22
Number of independent functions            I               22
Number of point charges in /Mol/           I                0
Number of translation vectors              I                0
Atomic numbers                             I   N=           4
           8           8           1           1
Nuclear charges                            R   N=           4
  8.00000000E+00  8.00000000E+00  1.00000000E+00  1.00000000E+00
Current cartesian coordinates              R   N=          12
  0.00000000E+00  0.00000000E+00  0.00000000E+00  0.00000000E+00  0.00000000E+00
  2.83458920E+00  1.88972613E+00  0.00000000E+00  0.00000000E+00  0.00000000E+00
  1.32280829E+00  1.88972613E+00
Force Field                                I                0
Int Atom Types                             I   N=           4
           0           0           0           0
MM charges                                 R   N=           4
  0.00000000E+00  0.00000000E+00  0.00000000E+00  0.00000000E+00
Integer atomic weights                     I   N=           4
          16          16           1           1
Real atomic weights                        R   N=           4
  1.59949146E+01  1.59949146E+01  1.00782504E+00  1.00782504E+00
Atom fragment info                         I   N=           4
           0           0           0           0
Atom residue num                           I   N=           4
           0           0           0           0
Nuclear spins                              I   N=           4
           0           0           1           1
Nuclear ZEff                               R   N=           4
 -5.60000000E+00 -5.60000000E+00 -1.00000000E+00 -1.00000000E+00
Nuclear QMom                               R   N=           4
  0.00000000E+00  0.00000000E+00  0.00000000E+00  0.00000000E+00
Nuclear GFac                               R   N=           4
  0.00000000E+00  0.00000000E+00  2.79284600E+00  2.79284600E+00
MicOpt                                     I   N=           4
          -1          -1          -1          -1
Number of contracted shells                I               10
Number of primitive shells                 I               28
Pure/Cartesian d shells                    I                1
Pure/Cartesian f shells                    I                0
Highest angular momentum                   I                1
Largest degree of contraction              I                6
Shell types                                I   N=          10
           0          -1          -1           0          -1          -1
           0           0           0           0
Number of primitives per shell             I   N=          10
           6           3           1           6           3           1
           3           1           3           1
Shell to atom map                          I   N=          10
           1           1           1           2           2           2
           3           3           4           4
Primitive exponents                        R   N=          28
  5.48467166E+03  8.25234946E+02  1.88046958E+02  5.29645000E+01  1.68975704E+01
  5.79963534E+00  1.55396162E+01  3.59993359E+00  1.01376175E+00  2.70005823E-01
  5.48467166E+03  8.25234946E+02  1.88046958E+02  5.29645000E+01  1.68975704E+01
  5.79963534E+00  1.55396162E+01  3.59993359E+00  1.01376175E+00  2.70005823E-01
  1.87311370E+01  2.82539436E+00  6.40121692E-01  1.61277759E-01  1.87311370E+01
  2.82539436E+00  6.40121692E-01  1.61277759E-01
Contraction coefficients                   R   N=          28
  1.83107443E-03  1.39501722E-02  6.84450781E-02  2.32714336E-01  4.70192898E-01
  3.58520853E-01 -1.10777550E-01 -1.48026263E-01  1.13076702E+00  1.00000000E+00
  1.83107443E-03  1.39501722E-02  6.84450781E-02  2.32714336E-01  4.70192898E-01
  3.58520853E-01 -1.10777550E-01 -1.48026263E-01  1.13076702E+00  1.00000000E+00
  3.34946043E-02  2.34726953E-01  8.13757326E-01  1.00000000E+00  3.34946043E-02
  2.34726953E-01  8.13757326E-01  1.00000000E+00
P(S=P) Contraction coefficients            R   N=          28
  0.00000000E+00  0.00000000E+00  0.00000000E+00  0.00000000E+00  0.00000000E+00
  0.00000000E+00  7.08742682E-02  3.39752839E-01  7.27158577E-01  1.00000000E+00
  0.00000000E+00  0.00000000E+00  0.00000000E+00  0.00000000E+00  0.00000000E+00
  0.00000000E+00  7.08742682E-02  3.39752839E-01  7.27158577E-01  1.00000000E+00
  0.00000000E+00  0.00000000E+00  0.00000000E+00  0.00000000E+00  0.00000000E+00
  0.00000000E+00  0.00000000E+00  0.00000000E+00
Coordinates of each shell                  R   N=          30
  0.00000000E+00  0.00000000E+00  0.00000000E+00  0.00000000E+00  0.00000000E+00
  0.00000000E+00  0.00000000E+00  0.00000000E+00  0.00000000E+00  0.00000000E+00
  0.00000000E+00  2.83458920E+00  0.00000000E+00  0.00000000E+00  2.83458920E+00
  0.00000000E+00  0.00000000E+00  2.83458920E+00  1.88972613E+00  0.00000000E+00
  0.00000000E+00  1.88972613E+00  0.00000000E+00  0.00000000E+00  0.00000000E+00
  1.32280829E+00  1.88972613E+00  0.00000000E+00  1.32280829E+00  1.88972613E+00
Constraint Structure                       R   N=          12
  0.00000000E+00  0.00000000E+00  0.00000000E+00  0.00000000E+00  0.00000000E+00
  2.83458920E+00  1.88972613E+00  0.00000000E+00  0.00000000E+00  0.00000000E+00
  1.32280829E+00  1.88972613E+00
Num ILSW                                   I              100
ILSW                                       I   N=         100
           0           1           0           0           2           0
           0           0           0           0           0 67108864000
           0           0           0           0           2           0
           0           0           0           0           1           0
           1           1           0           0           0           0
           0           0      100000           0          -1           0
           0           0           0           0           0           0
           0           0           0           1           1           0
           0           0           1           0           0           0
           0           0           4          50           0           0
           0           0           0           0           0           0
          -1          -1          -1           0           0           0
           0           0           0           0           0           0
           0           0           0           0           0           0
           0           0           0           0           0           0
           0           0           0           0           0           0
           0           0           0           0
Num RLSW                                   I               50
RLSW                                       R   N=          50
  1.00000000E+00  1.00000000E+00  1.00000000E+00  1.00000000E+00  1.00000000E+00
  0.00000000E+00  0.00000000E+00  1.00000000E+00  0.00000000E+00  0.00000000E+00
  0.00000000E+00  0.00000000E+00  1.00000000E+00  0.00000000E+00  0.00000000E+00
  0.00000000E+00  0.00000000E+00  1.00000000E+00  0.00000000E+00  0.00000000E+00
  0.00000000E+00  0.00000000E+00  1.00000000E+00  0.00000000E+00  0.00000000E+00
  0.00000000E+00  0.00000000E+00  1.00000000E+00  0.00000000E+00  0.00000000E+00
  0.00000000E+00  0.00000000E+00  1.00000000E+00  0.00000000E+00  0.00000000E+00
  0.00000000E+00  0.00000000E+00  0.00000000E+00  1.00000000E+00  1.00000000E+00
  1.00000000E+00  1.00000000E+00  1.00000000E+00  1.00000000E+00  2.31488553E+12
  2.31488553E+12  2.31488553E+12  2.31488553E+12  1.00000000E+00  2.31488553E+12
MxBond                                     I                2
NBond                                      I   N=           4
           2           2           1           1
IBond                                      I   N=           8
           2           3           1           4           1           0
           2           0
RBond                                      R   N=           8
  1.00000000E+00  1.00000000E+00  1.00000000E+00  1.00000000E+00  1.00000000E+00
  0.00000000E+00  1.00000000E+00  0.00000000E+00
Virial Ratio                               R      1.996594338451715E+00
SCF Energy                                 R     -1.505850337850876E+02
MP2 Energy                                 R     -1.508519579210718E+02
Total Energy                               R     -1.508519579210718E+02
Post-SCF wavefunction norm                 R      1.478190147160815E+00
RMS Force                                  R      1.117371717755152E-01
RMS Density                                R      5.654959172096984E-09
External E-field                           R   N=          35
  0.00000000E+00  0.00000000E+00  0.00000000E+00  0.00000000E+00  0.00000000E+00
  0.00000000E+00  0.00000000E+00  0.00000000E+00  0.00000000E+00  0.00000000E+00
  0.00000000E+00  0.00000000E+00  0.00000000E+00  0.00000000E+00  0.00000000E+00
  0.00000000E+00  0.00000000E+00  0.00000000E+00  0.00000000E+00  0.00000000E+00
  0.00000000E+00  0.00000000E+00  0.00000000E+00  0.00000000E+00  0.00000000E+00
  0.00000000E+00  0.00000000E+00  0.00000000E+00  0.00000000E+00  0.00000000E+00
  0.00000000E+00  0.00000000E+00  0.00000000E+00  0.00000000E+00  0.00000000E+00
IOpCl                                      I                0
IROHF                                      I                0
Alpha Orbital Energies                     R   N=          22
 -2.06710275E+01 -2.06357144E+01 -1.58082983E+00 -1.23932582E+00 -7.68824942E-01
 -7.25511245E-01 -5.89611698E-01 -5.29433896E-01 -5.19198421E-01  1.55664359E-01
  1.90455414E-01  3.09896988E-01  1.01629042E+00  1.08030214E+00  1.11567392E+00
  1.12472147E+00  1.21425268E+00  1.25020319E+00  1.30672735E+00  1.34263848E+00
  1.70655432E+00  1.87645269E+00
Alpha MO coefficients                      R   N=         484
  9.95854914E-01  2.20894546E-02  1.58146987E-03  3.13424521E-04  1.58465607E-03
 -8.69982897E-03 -1.76660250E-03 -4.81377813E-04 -2.13322225E-03  3.14651942E-03
  3.15715209E-04  3.00651233E-05  4.31522105E-05 -2.55037693E-04  3.30637388E-04
  1.61967191E-05 -7.61260713E-04 -9.10843505E-04  5.76935089E-04  1.85387436E-03
  4.85587304E-04  1.67588251E-03 -3.17520416E-03  1.82462789E-04  3.56677680E-06
  1.09574477E-04  2.66845048E-04  5.17212742E-04 -6.15190033E-05 -5.79237792E-04
  8.88517172E-04  9.95818848E-01  2.20324245E-02  1.10813408E-04  1.30756063E-03
 -1.99280072E-03 -8.63555204E-03 -4.76809452E-05 -1.50801411E-03  2.35603852E-03
  3.67822041E-08  1.23419221E-04 -2.65060937E-05  3.42428745E-03 -1.41864894E-01
  3.07429435E-01  4.59214364E-02  2.70752185E-02  9.79191285E-02  3.12423342E-01
  3.35668137E-02  2.25965832E-02  5.13882170E-02 -1.46141636E-01  3.20567075E-01
  8.45014154E-03  7.34559697E-02 -1.14108173E-01  2.83150697E-01  8.66774190E-03
  2.93414623E-02 -3.63159629E-02  7.17399353E-02 -1.55083593E-02  1.69788048E-01
 -5.34350428E-02 -1.66671417E-01  3.72339908E-01  9.52570172E-02  2.30874855E-03
 -5.82158130E-02  4.58536763E-01  5.71893647E-02  1.19933635E-02  1.70962379E-02
  1.53592984E-01 -3.51034514E-01  2.26221712E-03 -9.70057240E-02 -2.74883630E-03
 -3.97498120E-01 -2.95826804E-03 -3.89070858E-02  2.75583428E-02  1.28557305E-01
 -5.06851662E-03 -1.23498244E-01  6.92740140E-03 -3.10429200E-03  6.57485371E-03
 -1.67087494E-01  2.96393323E-01  7.11159623E-02  2.69499633E-02 -8.93534279E-02
  1.88477728E-01  4.02858503E-02  8.08815419E-02 -1.82459802E-01 -7.95351247E-02
  3.63102545E-01 -1.70794475E-01 -3.31498993E-01 -5.26786166E-02  1.78219072E-01
 -6.69298716E-02 -1.07561884E-01 -5.69337465E-02  2.60887059E-01  7.86327964E-02
  6.25737297E-02 -1.50653119E-01  4.45338276E-01  1.19136400E-01  1.40419379E-02
 -2.28039449E-01  2.73768393E-01  7.56343067E-02  1.53038587E-02  1.34620700E-02
 -2.72830447E-02  2.39346721E-01  1.71154911E-01 -7.58295917E-04 -7.04488497E-02
  1.61786155E-01  9.66195498E-02  1.24894728E-02  2.23982007E-01  1.02176685E-01
  8.62499005E-02  3.59062422E-02  2.38089756E-02 -8.12877612E-02 -2.31372622E-03
 -2.16200486E-01  4.02634828E-01 -3.12354246E-02  1.65154578E-02 -1.35702490E-01
  3.08517819E-01  4.48931311E-02 -1.26581504E-01  1.45623750E-01 -1.12028859E-01
 -3.59851771E-01 -1.26580290E-01  1.12085183E-01 -5.62605889E-02 -2.42976949E-01
 -5.26171458E-02 -4.29528886E-02  1.11534914E-02 -1.24826603E-01 -2.39075335E-02
  5.01456823E-02 -2.25903039E-01  3.06115687E-01 -1.87132358E-02  1.22224904E-01
 -1.43314671E-01  2.30422223E-01  1.73983358E-04 -9.82945332E-03  1.93456597E-02
  5.25129785E-01 -1.99946952E-01  5.75438466E-02  3.89906927E-02  3.87651441E-01
 -1.39684416E-01  3.44778667E-02 -1.31315672E-01 -5.84786093E-02 -6.88415085E-02
  7.67857236E-03  1.93812531E-02 -7.10215447E-02  1.41846090E-01  4.45633885E-01
  2.01266723E-01 -1.60954580E-03  1.02008051E-01  3.47021070E-01  1.94746050E-01
 -8.49906322E-03  2.05573700E-02 -3.00515670E-01 -3.53654767E-01 -7.11928168E-03
  6.89410632E-03 -2.19638600E-01 -2.37120927E-01  1.26820346E-02  5.22735026E-02
  1.93061979E-02 -9.88751937E-02 -5.89932862E-02  7.67572309E-02 -1.62254104E-01
 -1.12368888E-01  3.07208957E-02 -3.82545531E-01 -7.29391301E-01 -2.54702904E-01
  5.80855637E-02 -5.14281000E-01 -3.30572826E-02  8.78784034E-02 -2.42487638E-02
 -1.08587402E-01 -4.20616026E-01  2.53798803E-01 -4.91629257E-02 -1.31894574E-01
 -5.44659978E-01  3.32962197E-02  7.83317982E-01  8.43705823E-02 -7.15540168E-02
  3.13738908E-02 -1.45619726E-02 -2.51071972E-01 -5.49658850E-02  2.51570839E-01
 -6.13286501E-01 -4.70143017E-01 -1.06935364E-01  3.19912852E-01  5.20311932E-02
 -1.07941500E-01 -1.70322557E-02 -8.92612912E-03  2.24151168E-01 -5.98713518E-01
 -1.99059852E-02 -8.68932881E-02  3.68140861E-01  1.10373321E-01  1.12234470E+00
 -3.13290954E-02  6.63238072E-01  1.53754496E-02 -4.15640021E-02  1.50835579E-01
 -1.17332123E-01 -1.18360365E-01 -1.90007494E-01  3.25716254E-01 -2.67417887E-01
 -2.91869085E-01  4.44161505E-02 -3.04584584E-02  1.09428247E-02 -2.22338362E-01
 -6.88788046E-02 -9.95076040E-01  2.81858050E-02 -5.51168884E-01  3.20542639E-02
 -7.46743357E-02 -8.61283371E-01  8.89751159E-02  2.14325173E+00  3.02859010E-02
 -1.64264389E-01 -3.14410684E-01 -1.86510558E-02 -2.74383069E-01  1.23248884E-01
 -1.61111891E-01  2.57507258E-02  2.88033691E-01 -2.76685098E-02  1.40730803E-01
  1.38318320E-01 -1.06044047E-01 -9.21250800E-02 -1.61483318E-02 -3.63517302E-02
  3.37925233E-01 -1.15671151E-01  1.17190968E+00 -8.70122238E-01 -4.56270049E-01
  2.12828283E-01 -1.62817780E-02 -2.02858444E-02 -3.44338197E-01 -2.94593352E-01
 -4.41938603E-01  6.09475874E-01  3.26224330E-01  3.27149529E-01  8.79656728E-01
  5.18141586E-02 -1.00294599E-01 -2.21883538E-01  1.27428073E-01 -1.59829808E-01
 -6.59472868E-01  1.98221385E-01 -6.95529972E-01  9.64630331E-01  6.32690561E-02
 -1.17430056E-01  8.58207146E-01 -2.81881087E-01 -1.52326663E-03  5.44470626E-02
 -1.69615807E-01 -7.02368879E-01  2.26735293E-01 -1.65260813E-01  1.86786788E-01
  7.85321444E-01 -4.16942890E-01 -4.13437591E-02  3.18317390E-01 -1.31761570E-01
 -3.66948090E-01  3.97620233E-01  1.16497073E-01  1.17712756E-01  3.05453569E-01
 -6.19688325E-01 -2.16092023E-02 -3.36788771E-02  8.33219056E-02 -4.00974204E-01
 -4.07960203E-02  3.90605245E-01 -2.13584333E-01  2.08159388E-01 -1.79828305E-01
 -3.22931848E-01  2.58308818E-01 -2.66612480E-01  1.86197825E-01 -1.63391178E-02
 -3.23418278E-03 -6.80037023E-01 -2.63801626E-01 -1.84090618E-01  1.70599076E-01
  7.14910883E-01  6.36255690E-01 -4.73309816E-02 -2.36510477E-01  2.65625370E-03
 -5.16491102E-01  1.36097156E-01  4.86342253E-02 -3.53714080E-01  2.39455591E-01
  1.07686463E-01  1.42855124E-01  1.77060668E-02 -5.91761901E-01 -1.11594639E-01
 -4.50571959E-01 -7.86740546E-04 -9.33725930E-03 -5.69792702E-01  3.60553395E-01
  3.82958242E-01  3.12714056E-02  8.17953056E-01 -5.75537660E-01 -5.48337892E-01
  5.14170466E-01 -4.74067524E-01  1.64565233E-01  3.14687015E-01 -1.43815858E-02
  9.28923610E-02  4.88289017E-01 -4.90262660E-01 -4.32461277E-02 -1.55173976E-02
 -7.16210635E-01  7.46226562E-01  3.24709279E-01 -1.13034975E-02  1.11225735E-02
 -9.80417465E-02  3.18104731E-01 -5.08153462E-01  1.19496428E-01  1.98643577E-01
 -5.13112386E-02  4.56855208E-01 -3.78506379E-02  4.32459393E-01 -6.87476770E-01
 -4.72663972E-02  3.49782918E-02 -5.17048977E-01 -3.58644658E-01 -2.39086209E-02
  6.57864686E-01  8.57414304E-01  4.93542195E-01  1.37464030E-02 -8.05936598E-01
  2.20481176E-02 -3.38831158E-01 -1.20378920E-01 -6.96979221E-02 -5.03039727E-01
  5.99740560E-01  1.24051791E-01  4.68508303E-02  4.55895693E-01  1.90408743E-01
 -6.79335565E-01  7.18912987E-02 -5.19086748E-02 -1.76321775E-02  2.38582593E-01
 -5.29105730E-01 -2.40823003E-02  1.04460333E-01 -4.81382899E-01  9.39258564E-01
  1.06414539E-01 -4.19416100E-01 -2.80441704E-02  1.73881694E-01  5.91989829E-02
  7.22606206E-01  1.14459075E-01 -1.14320829E-01 -1.88162206E-01 -7.22332498E-01
 -5.96949864E-01 -1.75488364E-01 -5.08166957E-01 -6.82068243E-01  1.09331703E+00
  9.65143271E-03  5.02344799E-01  1.02478050E-02 -1.55260272E-01 -8.08835702E-02
 -1.34017544E+00 -1.63304155E-01  3.49353931E-01 -7.94552737E-01  4.54725240E-02
 -1.66537617E+00  3.35497516E-02 -6.37429256E-02  2.55983043E-01  3.03167869E+00
 -2.30240111E-02  3.91392053E-01 -1.28613107E+00  2.53205815E-01  2.81878177E-02
 -2.11973066E-01 -9.51141141E-01  3.54449396E-02 -1.54875657E+00 -1.10893885E-01
 -1.02981582E-01 -3.94953549E-01  2.52063349E+00  6.66108146E-01  2.94450716E-01
  9.67920170E-01  2.05831910E-02 -3.36359821E-01 -1.62044953E-02 -3.82964936E-02
  2.06134835E-01  3.01232185E-01 -5.93282540E-02  5.75425254E-01  1.54176329E-01
 -6.90502599E-01 -2.83618556E-01 -5.75808407E-01 -8.22187122E-01
Total SCF Density                          R   N=         253
  2.09016256E+00 -1.95265228E-01  5.41087565E-01  3.13273174E-02 -7.95675283E-02
  6.17174878E-01 -2.41674111E-03 -1.10679982E-02 -8.89353021E-04  8.83640030E-01
  2.39625373E-02 -8.22952505E-02  5.03382835E-02  4.43630313E-02  4.42415518E-01
 -2.94924400E-01  6.19804110E-01 -1.51625391E-01  6.75714053E-02 -2.51774035E-02
  7.53171444E-01  1.43035589E-02 -5.20623179E-02  3.81284331E-01  1.03781009E-02
  5.46137630E-02 -9.26178427E-02  2.37102289E-01 -7.09717276E-03 -1.62789667E-03
  3.70883327E-03  6.40065541E-01  5.37452877E-02  6.44767223E-02  1.08905897E-02
  4.67665210E-01 -6.37045145E-04 -3.76499229E-02  6.18799116E-02  7.06618919E-02
  3.41052000E-01  2.31601926E-02  5.64649062E-02  7.17433401E-02  2.75809653E-01
 -6.33043401E-03  1.49537863E-02  2.64051721E-03  1.11642554E-02 -9.81967789E-04
  4.35550772E-02  3.10632902E-03  5.83527935E-03  2.33037182E-02  2.09104112E+00
  1.81120123E-02 -3.88623366E-02 -3.08368217E-03 -1.40174623E-02 -1.74355015E-02
 -1.06422716E-01 -6.49763261E-03 -9.32697058E-03 -6.46459952E-02 -1.99991540E-01
  5.54659376E-01 -2.46859063E-03  5.39641653E-03 -8.22183148E-02  1.04366872E-03
 -2.65540047E-02  1.41443502E-02 -6.09270292E-02  5.70037283E-04 -2.51472366E-02
 -1.15928530E-04 -9.10615078E-03  9.01932921E-01  2.12547561E-02 -2.54717035E-02
  9.89604315E-03 -1.29619543E-01 -1.42955679E-01 -1.42291012E-01  4.11933714E-03
 -1.43435410E-01 -1.68211844E-01  1.45640509E-02 -2.05000735E-02 -5.09198269E-03
  7.07092013E-01  1.35995515E-02 -8.95135234E-03  1.90421629E-02  7.68675554E-02
 -3.41139413E-01 -4.61088436E-02 -7.69924533E-03  4.95263365E-02 -2.50402732E-01
 -3.24316736E-02  8.40857788E-02 -1.52270678E-02 -7.78755009E-02  3.50117742E-01
  3.84952768E-02 -8.15220641E-02 -1.67657631E-02 -1.15049358E-01 -4.80141277E-02
 -1.55944799E-01 -1.97391270E-02 -7.52376046E-02 -8.87784807E-02 -2.89832813E-01
  6.18880482E-01  2.19337851E-02 -1.38263856E-01  1.46432651E-01  7.41397500E-01
 -2.57848682E-03  5.54121789E-03 -7.60361598E-02  8.87588375E-04 -1.35685734E-02
  1.45424047E-02 -5.39784283E-02  7.24571368E-04 -1.47550231E-02 -1.52618720E-03
 -4.38003525E-03  6.57747513E-01 -5.80780307E-03 -1.71394601E-02  1.82173431E-02
  4.80223046E-01  8.93152488E-03 -8.91634659E-03  1.78817095E-02 -1.42454200E-01
 -9.71912827E-02 -8.16630679E-02  8.37914502E-03 -1.31483882E-01 -1.08117555E-01
  9.61995354E-03 -2.51580814E-02 -2.35228276E-03  4.10534898E-01 -3.97088531E-02
 -8.41190129E-02 -3.52216467E-03  2.44756471E-01 -1.14600265E-02  3.46688465E-02
  2.45472427E-02  9.89364274E-02 -2.11338564E-01  1.68619625E-02  4.19548685E-03
  6.63135871E-02 -1.52766331E-01 -9.43314637E-03  4.45826887E-02 -2.60414365E-02
 -2.33220960E-02  2.09629802E-01  6.44744585E-02 -2.30084359E-02 -1.40305208E-02
  1.34215283E-01 -2.75611410E-02  5.89272132E-02  3.40924897E-01 -1.69678862E-02
 -2.63398100E-02  2.57805522E-02  2.07944348E-01 -1.02948520E-02 -2.19669134E-03
  4.12597610E-03 -6.84204630E-03 -5.85354440E-02  1.14852352E-02  4.13346043E-02
 -1.80198380E-02 -5.22773326E-02  1.69641401E-02  3.97074399E-02  2.12312638E-01
  2.44211505E-02 -4.63871851E-02  1.39744891E-01 -1.02882156E-02 -3.22979515E-02
 -7.57139630E-02  8.37742037E-02 -8.72233719E-03 -2.22389429E-02 -6.26055233E-03
  1.82282141E-02 -2.78483850E-02  1.16896841E-02  4.67669523E-02  2.51765730E-02
 -2.46270522E-02  1.09467068E-02  2.83480211E-02  7.63899300E-02  3.91772106E-02
  3.12497928E-03 -4.77951937E-03 -1.52926762E-02  4.87315274E-02  5.89178118E-02
 -4.96556872E-02 -2.19783506E-03  1.27243160E-02  5.23244743E-03 -3.90532964E-02
  8.60987762E-02 -7.52731450E-03  3.62851276E-01 -1.41858716E-01 -3.42673219E-04
 -3.34332061E-03  1.94097788E-01 -6.45826759E-02 -1.83085279E-02 -1.28181120E-02
  2.68441988E-01  1.15755503E-02 -7.96236889E-03 -1.75063319E-02  5.84056027E-02
 -1.23624804E-01 -2.93342137E-02 -1.55531362E-02  2.92915980E-02 -9.78186866E-02
  2.79073931E-02 -4.01514292E-02  1.09749508E-02  1.26833718E-01  7.67894508E-02
 -6.16315739E-02  6.25135067E-03  7.11561321E-02  5.43402683E-02 -1.76302794E-03
  7.52544740E-03  3.51917479E-02  5.90221022E-02
Total MP2 Density                          R   N=         253
  2.09015052E+00 -1.95963857E-01  5.58777020E-01  2.97855754E-02 -6.83092802E-02
  6.36329168E-01 -1.91436292E-03 -9.46354713E-03 -3.93292941E-04  8.65420914E-01
  1.87199589E-02 -6.01722553E-02  3.47156134E-02  4.13740540E-02  4.89563777E-01
 -2.95833381E-01  6.03686479E-01 -1.66243239E-01  5.60713894E-02 -2.19458338E-02
  7.93700528E-01  1.58253444E-02 -4.69590769E-02  3.48022843E-01  1.31653822E-02
  4.40534145E-02 -1.12753337E-01  2.15426767E-01 -5.72846229E-03 -3.40273094E-03
  5.48249096E-03  6.09235845E-01  5.42918880E-02  5.58695680E-02  1.49654641E-02
  4.86274353E-01 -1.11609237E-03 -2.31460588E-02  5.38278434E-02  6.79803588E-02
  3.18924335E-01  9.43500395E-03  5.20948680E-02  7.53796294E-02  2.39438555E-01
 -6.91103179E-03  1.76582615E-02  2.00593369E-03  1.12827060E-02  3.01174656E-03
  4.45012016E-02  2.69545878E-03  7.60777726E-03  2.21889754E-02  2.09048328E+00
  1.95186910E-02 -4.60039920E-02 -1.86078396E-03 -1.49200749E-02 -1.66965629E-02
 -1.05580625E-01 -5.07661530E-03 -1.31793554E-02 -5.07945037E-02 -1.97412340E-01
  5.60901719E-01 -3.15433778E-03  6.33187720E-03 -8.82321109E-02  5.45104600E-04
 -2.35376297E-02  1.64403302E-02 -5.60529908E-02  3.59992266E-04 -1.98828948E-02
  3.61617198E-04 -9.91580665E-03  8.78212331E-01  1.99356101E-02 -2.75619329E-02
  1.03420708E-02 -1.36230128E-01 -1.43113496E-01 -1.30802856E-01  5.90112718E-03
 -1.48701676E-01 -1.56003030E-01  1.45631161E-02 -1.74724783E-02 -3.42631580E-03
  7.09449865E-01  8.10063292E-03 -3.78608826E-03  1.54055125E-02  7.99399777E-02
 -3.40461380E-01 -1.39272746E-02 -1.38620425E-02  5.10949942E-02 -2.26684353E-01
 -2.58723411E-02  6.41747851E-02 -8.13721546E-03 -6.32444477E-02  4.11131286E-01
  4.08433213E-02 -8.96942717E-02 -9.50301010E-03 -1.28412267E-01 -6.34105530E-02
 -1.64791652E-01 -1.65661969E-02 -9.71360171E-02 -8.98582274E-02 -2.90732578E-01
  5.93147457E-01  1.85337334E-02 -1.48842064E-01  1.28050351E-01  7.98496167E-01
 -2.70416367E-03  5.04299837E-03 -8.09572037E-02  1.26088466E-03 -1.04807465E-02
  1.51461447E-02 -4.94868837E-02  1.35838520E-03 -1.02481203E-02 -9.55400002E-04
 -6.16706533E-03  6.39234879E-01 -5.22741165E-03 -1.40276811E-02  1.60703594E-02
  5.17758806E-01  9.14313088E-03 -1.33152769E-02  1.93173140E-02 -1.49398820E-01
 -9.07729768E-02 -7.74432873E-02  1.07241239E-02 -1.41137861E-01 -9.71974401E-02
  1.21764690E-02 -2.86395825E-02 -1.06668555E-03  3.86572641E-01 -3.58889856E-02
 -9.82461841E-02 -3.18548363E-03  2.42793089E-01 -1.39359211E-02  3.21870035E-02
  1.91976172E-02  9.95185934E-02 -1.87706122E-01  3.96256500E-02 -8.55573166E-04
  7.17881153E-02 -1.20441306E-01 -6.06822959E-03  3.07556272E-02 -2.12699599E-02
 -2.44002753E-02  2.15825110E-01  5.06206196E-02 -2.24977155E-02 -2.21848731E-02
  1.31589572E-01 -2.60159051E-02  5.73934723E-02  3.33524401E-01 -1.51244606E-02
 -2.31433683E-02  9.62391978E-03  1.96272074E-01 -9.07618215E-03  7.40158345E-03
  4.29657590E-03 -8.94096313E-03 -5.95976443E-02  8.11984023E-03  3.60913363E-02
 -1.53754886E-02 -5.43381878E-02  1.46931367E-02  3.17648508E-02  2.23609570E-01
  2.68722622E-02 -5.09173067E-02  1.60328782E-01 -1.72189017E-02 -2.47598582E-02
 -9.26948478E-02  9.89743435E-02 -1.36018806E-02 -9.12964235E-03 -7.41397364E-03
  1.81832842E-02 -1.96272683E-02  3.73106673E-03  4.16178956E-02  3.33912372E-02
 -1.95932412E-02  7.17148431E-03  2.21807968E-02  9.46160872E-02  5.63612533E-02
  3.80244085E-03 -7.19218602E-03 -1.34401362E-02  5.16164445E-02  4.72195215E-02
 -5.41428025E-02  1.95652052E-03  2.42140731E-02 -3.56872487E-03 -3.82527552E-02
  8.80052001E-02 -7.38129987E-03  3.45961721E-01 -1.40634405E-01 -2.29070360E-02
 -3.69222056E-03  1.87888340E-01 -6.03713871E-02 -1.79923795E-02 -1.76382919E-02
  2.88209494E-01  8.74304715E-03 -5.90247218E-03 -2.52747879E-02  9.35265167E-02
 -1.18932103E-01 -1.64216444E-02 -1.91788440E-02  5.96570516E-02 -8.74302196E-02
  2.86188697E-02 -4.11547411E-02  8.45984318E-03  1.42398054E-01  7.41744262E-02
 -8.57448233E-02  4.71465238E-03  7.74471900E-02  4.98992099E-02 -1.12070278E-02
 -3.22908808E-03  6.48536557E-02  7.66549703E-02
QEq coupling tensors                       R   N=          24
 -3.02875935E-01  5.84984371E-03  2.37965606E+00  4.32223032E-01  4.19456499E-01
 -2.07678013E+00  2.54978879E+00 -4.27172183E-02  4.72740089E-01 -9.61518363E-02
 -6.48901024E-01 -3.02252888E+00 -4.04747388E-01  1.22722721E-02  2.39761631E-01
  4.90486709E-02 -1.18154485E-02  1.64985757E-01  5.85186536E-01  1.31899017E-02
 -6.61469237E-01  2.62298534E-02  5.02827859E-01  7.62827014E-02
Mulliken Charges                           R   N=           4
 -5.23701892E-01 -3.71566175E-01  4.46075725E-01  4.49192342E-01
ONIOM Charges                              I   N=          16
           0           0           0           0           0           0
           0           0           0           0           0           0
           0           0           0           0
ONIOM Multiplicities                       I   N=          16
           1           0           0           0           0           0
           0           0           0           0           0           0
           0           0           0           0
Atom Layers                                I   N=           4
           1           1           1           1
Atom Modifiers                             I   N=           4
           0           0           0           0
Force Field                                I                0
Int Atom Modified Types                    I   N=           4
           0           0           0           0
Link Atoms                                 I   N=           4
           0           0           0           0
Atom Modified MM Charges                   R   N=           4
  0.00000000E+00  0.00000000E+00  0.00000000E+00  0.00000000E+00
Link Distances                             R   N=          16
  0.00000000E+00  0.00000000E+00  0.00000000E+00  0.00000000E+00  0.00000000E+00
  0.00000000E+00  0.00000000E+00  0.00000000E+00  0.00000000E+00  0.00000000E+00
  0.00000000E+00  0.00000000E+00  0.00000000E+00  0.00000000E+00  0.00000000E+00
  0.00000000E+00
Cartesian Gradient                         R   N=          12
 -3.14323498E-02  6.86492887E-02  1.49831697E-01  8.64350450E-03  1.63692431E-01
 -1.81649713E-01  4.02646749E-03  1.31336707E-02  3.17276441E-02  1.87623778E-02
 -2.45475390E-01  9.03712645E-05
Cartesian Force Constants                  R   N=          78
  3.45088592E-01 -9.07228852E-03  1.11047952E-02 -4.19410781E-02  1.17113609E-01
  4.46330837E-01  2.17669214E-03  4.93724288E-03  4.94169622E-03 -1.14494918E-01
  2.53804689E-03  8.36403230E-02  6.40438033E-03 -2.77354634E-03  6.48419401E-01
  5.12936296E-02 -7.88925216E-02 -3.26276125E-01 -4.40360505E-02 -4.76701660E-01
  4.91807698E-01 -4.02519798E-01  8.32932862E-03  3.12293971E-02 -1.82454264E-03
  8.55824889E-04 -1.03439318E-02  4.11776624E-01  2.35052563E-03 -1.95692848E-02
  4.03898755E-03 -6.72236708E-03  4.13971730E-03  2.16044887E-03 -1.21526434E-02
  1.36978553E-02 -2.07679588E-02  3.21158183E-03 -3.45075483E-03  3.85252757E-02
 -4.78064658E-03 -5.83937765E-02 -2.69586476E-02  6.44093289E-03  6.91199577E-02
  5.52545144E-02 -4.19428298E-03  5.76998471E-03  1.14142768E-01 -6.20325441E-04