B3LYP Energy                                                            
SP        RB3LYP                                                      6-31G               
Number of atoms                            I                4
Info1-9                                    I   N=           9
          13          12           0           0           0         110
           1          18        -502
Full Title                                 C   N=           1
B3LYP Energy
Route                                      C   N=           5
#p B3LYP/6-31G nosymm SCF(VeryTight) Integral(Grid=99590)   
Charge                                     I                0
Multiplicity                               I                1
Number of electrons                        I               18
Number of alpha electrons                  I                9
Number of beta electrons                   I                9
Number of basis functions                  I               22
Number of independent functions            I               22
Number of point charges in /Mol/           I                0
Number of translation vectors              I                0
Atomic numbers                             I   N=           4
           8           8           1           1
Nuclear charges                            R   N=           4
  8.00000000E+00  8.00000000E+00  1.00000000E+00  1.00000000E+00
Current cartesian coordinates              R   N=          12
  0.00000000E+00  0.00000000E+00  0.00000000E+00  0.00000000E+00  0.00000000E+00
  2.83458919E+00  2.83458919E+00  0.00000000E+00  0.00000000E+00  0.00000000E+00
  1.32280829E+00  2.83458919E+00
Number of symbols in /Mol/                 I                0
Force Field                                I                0
Atom Types                                 C   N=           4
                                                
Int Atom Types                             I   N=           4
           0           0           0           0
MM charges                                 R   N=           4
  0.00000000E+00  0.00000000E+00  0.00000000E+00  0.00000000E+00
Integer atomic weights                     I   N=           4
          16          16           1           1
Real atomic weights                        R   N=           4
  1.59949146E+01  1.59949146E+01  1.00782504E+00  1.00782504E+00
Atom fragment info                         I   N=           4
           0           0           0           0
Atom residue num                           I   N=           4
           0           0           0           0
Nuclear spins                              I   N=           4
           0           0           1           1
Nuclear ZEff                               R   N=           4
 -5.60000000E+00 -5.60000000E+00 -1.00000000E+00 -1.00000000E+00
Nuclear ZNuc                               R   N=           4
  8.00000000E+00  8.00000000E+00  1.00000000E+00  1.00000000E+00
Nuclear QMom                               R   N=           4
  0.00000000E+00  0.00000000E+00  0.00000000E+00  0.00000000E+00
Nuclear GFac                               R   N=           4
  0.00000000E+00  0.00000000E+00  2.79284600E+00  2.79284600E+00
MicOpt                                     I   N=           4
          -1          -1          -1          -1
Number of residues                         I                0
Number of secondary structures             I                0
Number of contracted shells                I               10
Number of primitive shells                 I               28
Pure/Cartesian d shells                    I                1
Pure/Cartesian f shells                    I                0
Highest angular momentum                   I                1
Largest degree of contraction              I                6
Shell types                                I   N=          10
           0          -1          -1           0          -1          -1
           0           0           0           0
Number of primitives per shell             I   N=          10
           6           3           1           6           3           1
           3           1           3           1
Shell to atom map                          I   N=          10
           1           1           1           2           2           2
           3           3           4           4
Primitive exponents                        R   N=          28
  5.48467166E+03  8.25234946E+02  1.88046958E+02  5.29645000E+01  1.68975704E+01
  5.79963534E+00  1.55396162E+01  3.59993359E+00  1.01376175E+00  2.70005823E-01
  5.48467166E+03  8.25234946E+02  1.88046958E+02  5.29645000E+01  1.68975704E+01
  5.79963534E+00  1.55396162E+01  3.59993359E+00  1.01376175E+00  2.70005823E-01
  1.87311370E+01  2.82539436E+00  6.40121692E-01  1.61277759E-01  1.87311370E+01
  2.82539436E+00  6.40121692E-01  1.61277759E-01
Contraction coefficients                   R   N=          28
  1.83107443E-03  1.39501722E-02  6.84450781E-02  2.32714336E-01  4.70192898E-01
  3.58520853E-01 -1.10777550E-01 -1.48026263E-01  1.13076702E+00  1.00000000E+00
  1.83107443E-03  1.39501722E-02  6.84450781E-02  2.32714336E-01  4.70192898E-01
  3.58520853E-01 -1.10777550E-01 -1.48026263E-01  1.13076702E+00  1.00000000E+00
  3.34946043E-02  2.34726953E-01  8.13757326E-01  1.00000000E+00  3.34946043E-02
  2.34726953E-01  8.13757326E-01  1.00000000E+00
P(S=P) Contraction coefficients            R   N=          28
  0.00000000E+00  0.00000000E+00  0.00000000E+00  0.00000000E+00  0.00000000E+00
  0.00000000E+00  7.08742682E-02  3.39752839E-01  7.27158577E-01  1.00000000E+00
  0.00000000E+00  0.00000000E+00  0.00000000E+00  0.00000000E+00  0.00000000E+00
  0.00000000E+00  7.08742682E-02  3.39752839E-01  7.27158577E-01  1.00000000E+00
  0.00000000E+00  0.00000000E+00  0.00000000E+00  0.00000000E+00  0.00000000E+00
  0.00000000E+00  0.00000000E+00  0.00000000E+00
Coordinates of each shell                  R   N=          30
  0.00000000E+00  0.00000000E+00  0.00000000E+00  0.00000000E+00  0.00000000E+00
  0.00000000E+00  0.00000000E+00  0.00000000E+00  0.00000000E+00  0.00000000E+00
  0.00000000E+00  2.83458919E+00  0.00000000E+00  0.00000000E+00  2.83458919E+00
  0.00000000E+00  0.00000000E+00  2.83458919E+00  2.83458919E+00  0.00000000E+00
  0.00000000E+00  2.83458919E+00  0.00000000E+00  0.00000000E+00  0.00000000E+00
  1.32280829E+00  2.83458919E+00  0.00000000E+00  1.32280829E+00  2.83458919E+00
Num ILSW                                   I              100
ILSW                                       I   N=         100
           0           1           0           0           2           0
           0           0           0           0         402          -1
       99590           0           0           0           0           0
           0           0           0           0           0           0
           1           1           0           0           0           0
           0           0      100000           0          -1           0
           0           0           0           0           0           0
           0           0           0           1           0           0
           0 -2000000000           1           0           0           0
           0           0           4          52           0           0
           0           0           5           0           0           0
           0           0           0           4           0           1
           0           0           0           0           0           0
           0           0           0           0           0           0
           0           0           0           0           0           0
           0           0           0           0           0           0
           0           0           0           0
Num RLSW                                   I               52
RLSW                                       R   N=          52
  8.00000000E-01  7.20000000E-01  1.00000000E+00  8.10000000E-01  2.00000000E-01
  0.00000000E+00  0.00000000E+00  1.00000000E+00  0.00000000E+00  0.00000000E+00
  0.00000000E+00  0.00000000E+00  1.00000000E+00  0.00000000E+00  0.00000000E+00
  0.00000000E+00  0.00000000E+00  1.00000000E+00  0.00000000E+00  0.00000000E+00
  0.00000000E+00  0.00000000E+00  1.00000000E+00  0.00000000E+00  0.00000000E+00
  0.00000000E+00  0.00000000E+00  1.00000000E+00  0.00000000E+00  0.00000000E+00
  0.00000000E+00  0.00000000E+00  1.00000000E+00  0.00000000E+00  0.00000000E+00
  0.00000000E+00  0.00000000E+00  0.00000000E+00  1.00000000E+00  1.00000000E+00
  0.00000000E+00  1.00000000E+00  0.00000000E+00  0.00000000E+00  0.00000000E+00
  0.00000000E+00  0.00000000E+00  0.00000000E+00  0.00000000E+00  0.00000000E+00
  0.00000000E+00  0.00000000E+00
MxBond                                     I                2
NBond                                      I   N=           4
           1           2           0           1
IBond                                      I   N=           8
           2           0           1           4           0           0
           2           0
RBond                                      R   N=           8
  1.00000000E+00  0.00000000E+00  1.00000000E+00  2.00000000E+00  0.00000000E+00
  0.00000000E+00  2.00000000E+00  0.00000000E+00
Virial Ratio                               R      2.000909902421809E+00
SCF Energy                                 R     -1.512569817123453E+02
Total Energy                               R     -1.512569817123453E+02
RMS Density                                R      6.675994678560938E-09
Job Status                                 I                1
Nuclear derivative order                   I                0
External E-field                           R   N=          35
  0.00000000E+00  0.00000000E+00  0.00000000E+00  0.00000000E+00  0.00000000E+00
  0.00000000E+00  0.00000000E+00  0.00000000E+00  0.00000000E+00  0.00000000E+00
  0.00000000E+00  0.00000000E+00  0.00000000E+00  0.00000000E+00  0.00000000E+00
  0.00000000E+00  0.00000000E+00  0.00000000E+00  0.00000000E+00  0.00000000E+00
  0.00000000E+00  0.00000000E+00  0.00000000E+00  0.00000000E+00  0.00000000E+00
  0.00000000E+00  0.00000000E+00  0.00000000E+00  0.00000000E+00  0.00000000E+00
  0.00000000E+00  0.00000000E+00  0.00000000E+00  0.00000000E+00  0.00000000E+00
IOpCl                                      I                0
IROHF                                      I                0
Alpha Orbital Energies                     R   N=          22
 -1.92514630E+01 -1.91870256E+01 -1.18541215E+00 -9.17619608E-01 -5.26229119E-01
 -4.53493007E-01 -4.27685719E-01 -3.13528346E-01 -3.02837422E-01 -1.08182432E-01
 -2.02706007E-02  1.51081447E-01  6.75483291E-01  8.32751068E-01  8.57395579E-01
  9.08729520E-01  9.30777283E-01  9.93969601E-01  1.03643650E+00  1.32327496E+00
  1.40672141E+00  1.55288984E+00
Alpha MO coefficients                      R   N=         484
  9.95126277E-01  2.70928569E-02  9.18042912E-04  1.49447702E-04  1.44681973E-03
 -1.14375637E-02 -1.07737751E-03 -1.42810989E-04 -3.03908444E-03  3.65775047E-04
 -1.11144453E-04  3.35787015E-05  1.69690078E-04 -7.89771196E-05  1.88935268E-03
  1.23509041E-05 -6.58624273E-04 -2.35316524E-03  5.47546154E-04  1.11546576E-03
 -1.42701771E-04  1.70169842E-03 -4.32657404E-04 -9.21414213E-05  3.87487434E-06
  1.04314007E-04  2.27476879E-04  1.92968056E-03 -3.52329049E-05 -2.64044782E-04
  1.56970504E-03  9.94986567E-01  2.90639507E-02  4.89987510E-05  2.73612153E-03
 -1.28984603E-03 -1.54806305E-02 -4.29028900E-05 -2.93580996E-03  2.12812798E-03
 -1.88515166E-04  2.37993795E-04 -8.98355121E-04  6.17304296E-03 -9.17913781E-02
  2.00092928E-01  1.16750611E-02  1.16838346E-02  9.27629420E-02  1.83123957E-01
  1.26913859E-02  1.42677018E-02  4.01125670E-02 -1.86568335E-01  4.11350830E-01
  4.43155851E-03  1.80001632E-01 -8.12056164E-02  3.01069572E-01  4.66168126E-03
  2.40886948E-02 -2.61863522E-02  1.37739939E-02 -8.63665811E-04  2.34033527E-01
 -1.62385767E-02 -2.04186880E-01  4.66654591E-01  4.05493578E-02  1.88424956E-04
  3.04777809E-02  4.93288887E-01  3.34149722E-02  4.15293298E-03  2.96222181E-02
  8.74947118E-02 -2.06788272E-01  2.52404966E-03 -1.66110127E-01 -1.02686210E-01
 -1.49231770E-01 -1.30957363E-03 -1.60611881E-02 -3.04705313E-02  4.48996615E-02
  1.37067426E-02 -1.87415630E-01 -3.41575618E-02 -4.66435432E-02  1.11233936E-01
  5.28579746E-02  1.42342602E-01 -2.62507229E-01  1.59077934E-01  3.53806210E-02
  9.23545716E-02 -1.39843553E-01  7.72189880E-02 -1.64721406E-01  1.01961883E-02
  4.48289659E-01  1.73646768E-01 -3.86090059E-01  9.63622955E-04  1.67115494E-01
  9.44611873E-02  3.78178358E-02  3.54382121E-02  2.59098608E-01  1.36109544E-01
  1.78839848E-02 -5.06304284E-02  3.88886082E-01 -8.48953252E-02 -1.36132166E-01
 -4.46906044E-02  2.47167979E-01 -6.15239373E-02 -6.17101066E-02 -3.52963030E-02
  8.39811151E-02  2.83429988E-01 -1.25707818E-01  1.77068829E-01  1.25555709E-01
  1.91657513E-01 -6.90608902E-02  1.21566952E-01  1.83357969E-01  2.18562661E-01
 -4.33097138E-02 -9.40221847E-03 -4.63068486E-02  1.11447423E-01 -1.82714944E-01
 -1.46561577E-01 -3.47924653E-01  1.74258619E-01 -1.25513068E-01 -1.10631115E-01
 -2.05767464E-01 -5.70777628E-02  1.36370828E-01 -1.70317579E-01 -1.72442860E-01
  3.73570402E-01  2.01441939E-01 -1.22388898E-01 -1.13170002E-01  2.37050858E-01
 -6.13199406E-02 -5.23377257E-02 -4.30990094E-02  1.52198940E-02  2.95956820E-03
 -1.38989729E-02 -1.67403354E-02  6.42954508E-01 -2.59003055E-02  9.85283725E-03
 -1.35884489E-02  4.44069044E-01 -5.41606535E-03 -3.12436889E-02  7.00523767E-02
  1.80780207E-02 -2.28893133E-01  1.02648114E-01  1.42096939E-01  1.37573439E-02
 -1.13665788E-01  7.14853444E-02 -5.13436225E-03  3.09876937E-03 -1.23438541E-01
  7.95120098E-03 -2.64044841E-02  7.07059715E-02 -2.68493863E-01 -2.31775415E-02
 -4.19052198E-02  9.62339349E-02 -1.78320477E-01 -1.83157012E-02 -3.75098209E-02
  2.23563723E-04 -5.73617784E-03  5.84400472E-01  9.74570474E-03  2.02389490E-02
  1.81652432E-02  4.30051386E-01  4.30533013E-03  3.79278600E-04 -1.80296471E-01
 -2.41124969E-01  1.63604573E-03  4.66677259E-03  4.04753335E-02 -9.28240361E-02
 -4.61541705E-01 -8.28079277E-03 -1.15836540E-02 -2.73708037E-01 -4.28521536E-01
 -3.19594908E-03 -2.24549233E-02  7.20237676E-03 -1.89487444E-02  6.10610048E-02
 -3.04913314E-03 -4.92866008E-02 -5.32161132E-02  4.55403925E-02 -1.55878017E-02
 -5.41239857E-02  3.05270036E-01  7.71787139E-01 -1.85509252E-03  7.56045484E-02
 -4.72664895E-02  1.34197460E-01 -3.72383687E-02 -3.39038645E-02  5.42936449E-01
  2.79002707E-01 -2.80768594E-02 -4.58300924E-02  5.35014277E-01  6.23946829E-02
 -1.52900170E-01  4.02651743E-03  3.63555917E-02  5.14084482E-01 -4.98523332E-01
  1.03492990E-02  2.91292741E-03  5.31456736E-01  3.24052968E-02  1.93116101E-02
 -2.18418985E-02  2.86456468E-01  2.46250345E-02 -6.92448834E-02  6.10647494E-02
 -7.15621110E-02 -9.80809657E-02 -2.29361863E-01  4.25632527E-02 -7.71583074E-02
 -1.63968027E-01  5.91233682E-02 -8.32717598E-02 -1.77152396E-03 -2.31212160E-01
 -1.48130754E-01 -1.22177687E+00  6.38811468E-03 -5.29214786E-01 -1.84389565E-01
 -7.41571341E-02 -1.46756039E-01  4.36667686E-02  2.04802939E+00  1.07969596E-02
  8.94458160E-02  3.44588067E-01  3.49108420E-02  1.86351877E-01 -5.17792512E-01
 -5.18522042E-01 -1.73168480E-02 -3.07921944E-01  1.92335482E-03 -8.57824710E-02
 -9.99836441E-02  8.42770317E-02  9.44562322E-02  3.14682768E-01  7.79375236E-02
 -6.07833580E-03 -2.19036207E-01 -1.08838901E+00  1.29344130E+00 -2.85020856E-02
 -1.69346421E-01 -2.80458216E-02  1.41210314E-01 -3.67766352E-02  5.21842709E-01
 -3.50228585E-01  2.34448469E-01 -4.08060358E-03 -4.86424664E-01  7.72587962E-01
  5.01779120E-02 -1.97577134E-01 -1.54283164E-01  4.48899923E-01 -3.69306392E-01
 -5.92611689E-01  1.63376915E-01 -7.06805702E-01  7.63228711E-01 -8.90640480E-02
  1.01979112E-01  2.32803712E-01  2.95621847E-01 -3.65646921E-02  3.47072538E-01
 -2.92801238E-01 -2.79123957E-01 -2.47021851E-01 -1.71174974E-01  1.95344491E-01
  2.56302155E-01  4.07560620E-01 -1.57863581E-02  8.86986063E-02 -7.04696845E-01
 -2.27393831E-01 -1.29464894E-01  1.15823404E-01  7.43552900E-01  5.03342451E-01
  2.84794834E-01 -1.99292164E-01  1.13248340E-01 -2.08269626E-01 -3.14156743E-01
 -3.48927002E-02  2.44741745E-01  2.26373458E-01 -4.86467891E-01 -4.13819461E-01
  1.27104564E-01 -2.69432544E-01  5.75971884E-01  9.11995425E-01  2.61279136E-03
  6.08534768E-02  4.58323608E-01  4.68629057E-02 -3.42916257E-01 -1.48571766E-01
 -5.19192691E-01  1.57677812E-01  8.33226942E-01 -1.77011327E-01  4.75414873E-01
 -2.02158601E-01 -3.86848037E-01 -1.38896495E-02  1.94412081E-01  2.77901372E-02
  5.12644458E-01 -8.32568180E-03 -1.34274086E-01 -3.42826508E-02 -7.95449340E-01
  3.84738582E-02 -3.05454814E-02  4.96700631E-02  1.96220026E-01 -4.67189064E-01
 -2.43562489E-01  7.02067258E-01 -2.42473199E-01  1.39404670E+00  3.08778355E-01
 -9.57730341E-02  2.27424090E-01 -5.71881194E-01 -5.65112256E-01  2.88464115E-02
 -4.33502490E-01 -2.91556180E-02 -1.62502904E-01  5.42189796E-01  7.15006734E-01
  5.22546969E-02  1.98461550E-01 -5.32474692E-01  6.78765466E-03 -2.05158143E-01
 -1.12192316E-01  2.22204770E-01 -6.48506346E-01  7.23766343E-01  1.40849885E-01
  1.69869483E-01  7.95862527E-01  6.80808391E-02 -1.93157284E-01 -4.11792919E-01
 -2.76040938E-01 -1.72709922E-02  2.88423977E-01 -7.81341975E-01 -2.57804204E-02
  1.48782735E-01 -4.18858520E-01  1.10461519E+00  5.87501511E-02 -3.05417331E-01
  4.60931265E-03 -5.75654460E-02  3.26845310E-01  4.32486074E-02 -3.33195796E-02
  3.44694652E-02 -6.14380134E-01 -2.50076583E-01 -1.38340730E-01 -5.27405796E-01
  1.89499941E-01  1.43676407E-01  1.70162994E-01  5.77729612E-02 -1.04492902E+00
 -2.07478623E-01  1.41492684E-02 -3.69727693E-01  1.17377705E+00  3.68095431E-01
 -8.74935953E-02  5.80774807E-01 -1.32996970E-02  8.61871687E-02  1.54306528E-03
  4.10626523E-01  2.90873147E-01  2.48000472E-01 -5.70616839E-02  5.14006011E-01
  5.64312145E-03 -2.48529169E-01 -1.41354657E-01 -1.10773075E+00 -6.14705020E-02
 -3.36693239E-02  6.74751555E-01  5.43439282E-02  6.24315618E-02  2.08368664E-01
 -9.05283890E-01 -9.64938659E-02 -1.23232048E-01 -3.99504313E-01 -7.73147578E-02
  1.29211113E+00 -1.03394552E-02  5.62874025E-01 -5.44324283E-03 -1.54048122E+00
  3.33249732E-02 -5.04813306E-01 -2.99234341E-01  1.46311135E-01 -3.17575120E-02
 -7.78116397E-01  1.54591148E+00 -2.65031836E-03  8.86425476E-01  6.88647694E-02
 -4.18072308E-02  5.31261037E-03 -1.99056206E+00 -1.09519667E-01  1.65371934E-02
 -1.15594779E+00  1.05540183E-03 -1.23834674E+00 -7.64421412E-04  3.30143651E-01
  2.18707336E-01  3.17306565E+00  3.13054837E-02  5.66608793E-01 -1.30133899E+00
  3.12530424E-01 -1.53527867E-01 -9.97473636E-01 -4.30498049E-01
Orthonormal basis                          R   N=         484
  2.44128527E-02  9.17872661E-02  1.19336663E-02  1.63339322E-02  5.97212374E-02
  1.44694736E-01  2.96775266E-02  4.26278788E-02  1.46277743E-01  4.93575738E-02
  1.76967706E-01  5.36997969E-03  6.45330312E-02 -3.92530255E-02  2.29657987E-01
  1.47940139E-02  9.76612356E-02 -8.27557743E-02  5.23683722E-02  1.03783984E-01
  1.99238763E-01  2.32544410E-01  6.45758535E-02  1.85688609E-01  1.05275883E-01
 -3.96967668E-02  3.84310112E-03  2.14364123E-01  2.01235599E-01 -7.75554556E-02
 -3.14255280E-02 -3.38999008E-02 -9.17586729E-02  6.05580683E-02 -1.11361920E-01
 -8.93948912E-02 -6.67322177E-02  1.20450822E-01 -1.46696103E-01 -1.85571459E-01
  2.10223486E-01  2.65535560E-01 -1.66207625E-01 -8.69508232E-02 -5.78149456E-02
 -1.41956859E-01  1.71577092E-01  7.96755122E-02 -1.31114391E-01 -1.33012882E-01
  2.76708684E-01  1.29185140E-01 -1.64341694E-01 -1.19963826E-02 -3.34540623E-02
  1.21322754E-01  1.51934398E-01  1.59245613E-01 -5.02144278E-02  1.98435412E-01
  1.94073039E-01  2.23065185E-01  1.72230357E-01  1.61879606E-01  1.14470672E-01
  4.41746029E-02  1.06392201E-01  2.24723452E-01 -9.57699041E-02  1.83930819E-01
 -9.98299873E-02  1.96279826E-01 -1.31955414E-01  2.53011717E-01 -1.71779633E-01
 -1.03509760E-01 -2.19352990E-01 -8.73234598E-02  2.23250036E-01 -7.35341544E-02
 -1.96910386E-01 -1.20242893E-01  2.84447175E-01 -1.43422393E-01 -2.79252114E-02
 -9.09296998E-03  5.02525554E-02 -1.03927130E-02 -1.11657145E-01 -1.97815882E-01
  8.71669439E-02  1.32398229E-01  3.31588338E-01 -1.94800420E-01  9.99620072E-02
  1.51648490E-01  3.14673993E-01 -6.80027716E-02 -1.18564050E-01  1.25485735E-01
  8.46754354E-02 -2.99750848E-01 -1.26470495E-01  1.42354594E-01  1.07428020E-01
 -2.61846083E-01 -3.06755666E-02 -6.28392952E-02 -1.20645769E-02 -7.59123169E-02
  1.15637021E-01  1.46857863E-01 -1.27646544E-01 -2.09831327E-01 -7.04866523E-02
  8.30734153E-02 -1.11717832E-01 -1.72426037E-01 -6.18977001E-02 -1.27831628E-02
 -1.70430360E-02  5.21267123E-01  1.24839020E-01 -1.21297271E-02 -1.97011719E-02
  4.25973286E-01  6.61193677E-02 -2.57559798E-02 -2.61190707E-01 -1.58525270E-01
  7.33190317E-02 -8.47566845E-03  5.57376864E-02  6.84921525E-02 -6.86084330E-02
  5.01583560E-01 -2.94159571E-02  4.63322149E-02 -5.79703620E-02  4.02224946E-01
 -6.66493655E-03  8.66249243E-02  1.09862491E-01  2.05387351E-01 -3.34591398E-01
  9.76194011E-02  1.03261194E-01  1.63862269E-01 -1.88509666E-01  7.64359652E-02
 -9.96743907E-02 -5.18115034E-02 -1.62287836E-01  3.31621799E-02  3.38816430E-01
  1.84639753E-01  6.54593877E-01  7.30713240E-03  1.74751074E-02  2.34391164E-02
  2.62035263E-01  3.58562218E-03  1.64169522E-02  5.22304453E-02  3.03285924E-02
 -1.33648361E-01  9.00926934E-03  3.56782122E-02  6.52441161E-03 -6.38693298E-02
  3.41656095E-04  1.62904879E-02 -3.94683504E-01 -2.70052129E-01  9.97191705E-03
 -2.94739032E-02 -3.06552439E-01 -9.40842410E-02  9.84618545E-02  2.80144852E-02
 -4.65607832E-01  1.52969681E-02  2.69433867E-02  1.03195627E-02 -1.78146433E-01
  5.46254990E-01  1.73971680E-01 -7.82213376E-03  1.97187305E-02 -4.65770279E-01
 -2.07581470E-02 -3.85204059E-03 -8.85066072E-03 -1.86987681E-01 -7.89071506E-02
 -3.87576970E-02  3.76788026E-02 -9.24601638E-02  5.30838995E-01 -3.02205628E-02
 -1.94702183E-01 -5.04152881E-03  2.67673236E-01 -1.14401787E-01 -1.45568109E-02
  8.90950243E-04  6.04704017E-02  7.21174468E-01 -2.96543211E-02 -1.09670958E-02
  1.63857145E-01  1.44061630E-01 -1.25397233E-01  1.98148387E-03  5.88201371E-02
  2.18425373E-02  1.96723944E-01  6.07323250E-02 -4.56601542E-02 -1.44260803E-01
  6.98110913E-01 -3.03678980E-01 -1.29082290E-01  2.04625047E-02 -3.76357998E-01
 -2.14704413E-01  1.40834135E-02 -5.43176299E-04  1.32474457E-02 -3.49182389E-01
  1.44941637E-01 -2.25211338E-02 -1.04512888E-01 -4.49386430E-01  7.11311465E-02
  3.22709259E-03 -4.64225368E-02  1.05913032E-02  1.29212917E-01  3.69650148E-02
  7.98523083E-02  2.82617109E-02 -2.96306303E-02  5.70118752E-02 -3.91954242E-02
  5.64678877E-01 -3.27298317E-02  1.68594939E-02  2.69950079E-02 -3.28049755E-01
  3.33965125E-02 -1.87821356E-01  3.74891549E-01 -2.00446481E-02  7.68266291E-01
  1.13292165E-01  9.04315700E-02  1.22727216E-02 -4.54667419E-01 -6.81383112E-02
  4.05861134E-02 -1.61811541E-02  3.54969607E-02 -4.18213828E-01  3.93215775E-02
 -1.13340215E-01  4.91337268E-01  2.64555603E-02 -2.19633729E-02  3.62827645E-02
 -3.86474170E-01 -2.37243654E-02  7.90690408E-03  3.65037634E-03 -1.37600528E-02
  8.64447120E-01  2.49124431E-02  3.93083759E-02  1.62924104E-03 -7.63330639E-01
 -1.72080011E-02 -3.93278049E-02  4.11385849E-01 -5.71308638E-02 -7.78146601E-03
  1.44592140E-02  7.14598651E-03 -3.70880861E-02 -3.51340489E-02 -4.80466761E-01
 -5.12255342E-01 -1.05537592E-01  4.86422673E-02  5.48336704E-01  4.40826323E-01
 -1.01177278E-01  3.85741481E-01 -2.57961028E-02  1.54339026E-02  6.70474640E-01
 -1.38540078E-01  2.84962679E-02  2.39303577E-02 -6.48327782E-01  1.03586140E-01
 -1.14600817E-01 -4.07386811E-02 -3.42983855E-01 -2.73007986E-02  1.18459070E-01
 -2.60299332E-02 -5.50748862E-01  5.68653434E-01  7.52789316E-02  3.92509574E-02
  6.67660682E-01 -5.58344013E-01 -1.55557007E-01  6.50401151E-01  5.18097462E-02
  2.10627529E-01 -3.92397463E-01  3.34665728E-02 -6.23883380E-02 -1.36700043E-01
  3.05592272E-01  6.16669338E-02 -3.12836270E-02 -1.44127194E-01 -3.00119975E-01
 -3.38727629E-02  1.74129216E-01 -1.59201430E-03 -3.30381727E-01 -3.63450851E-01
 -5.92495370E-02  4.80599128E-04  4.64423396E-01  5.33840967E-01  1.13504164E-01
 -5.90891947E-01  1.35876746E-02  6.46334133E-01 -2.18244502E-01  2.90700830E-01
 -1.87954672E-02 -5.49376018E-01  4.45676793E-01 -2.46191317E-02  3.11124285E-02
 -4.70882181E-01  3.74914042E-01 -1.47747140E-01  8.30367881E-01 -4.70937612E-01
  8.69982610E-02 -1.45826935E-01 -3.30397350E-01  7.50843213E-01 -1.35537611E-01
  3.53852927E-01 -1.86080318E-02  1.09817982E-01  2.31884764E-01 -2.22586098E-01
 -2.19851793E-01 -1.01274426E-01 -3.75854745E-01  2.45831837E-01  3.53479118E-01
  3.42355512E-01 -5.54999599E-01  1.29017032E-01 -1.98496272E-01 -5.88544578E-02
  3.79244633E-01  5.42705137E-01  2.94300138E-02 -5.45844920E-02 -9.88009491E-02
 -8.18060336E-01 -5.13290302E-02  1.78987780E-01 -1.43387669E-02  8.82450830E-02
 -4.12950220E-01 -8.33880977E-02 -1.53626006E-01 -4.92642152E-02  7.18274271E-01
  1.24311854E-01  2.43493032E-01  8.73711248E-01 -5.26854880E-01  2.50620162E-02
 -9.97736280E-02  1.01372124E-02 -1.18460404E-01 -7.04801355E-02 -1.45089024E-01
  1.39015673E-01  1.48842362E-01  1.75865645E-01  3.80085080E-01 -3.04096955E-01
  8.20137708E-02 -7.58281726E-01 -2.34101364E-02 -1.80080656E-01  5.24265778E-02
  1.54629832E-01  3.93762155E-02 -9.70036185E-01 -1.96773564E-01  2.64397246E-01
 -4.43281489E-01  1.44418340E+00 -2.67538351E-01 -5.44795351E-02  7.45047599E-01
  2.45223073E-01 -4.60576721E-02 -9.09387634E-02 -7.67384178E-01 -6.27918766E-01
  1.30092551E-01  4.39253246E-01  4.94822962E-03  4.12518244E-02  5.70214627E-02
 -2.41574364E-01 -1.60938336E-01 -2.61301270E-01 -8.68064135E-02 -8.35701539E-02
  3.99759177E-01 -5.98808082E-01  1.33965337E+00  7.18755933E-01 -6.48677884E-01
  3.08511774E-03 -1.04713549E+00 -3.22129050E-02 -3.88253283E-02 -2.36748180E-01
  2.12486640E+00  7.70531088E-02  8.65142408E-02  1.21494514E+00  1.45515898E-02
 -2.82353063E-01  2.10179659E-03 -2.76040106E-01 -2.07964424E-01  5.65862588E-01
 -1.75975268E-02  8.80578432E-01  1.33888045E+00 -1.67328623E-01  2.21488538E-02
  1.52931252E-01 -1.93496588E+00  2.10540817E-02  5.44813877E-01  3.34974027E-02
 -2.69189135E-02  8.20858025E-02 -1.51170814E+00 -9.47741595E-02  6.89709123E-03
 -1.16429945E+00 -3.57338418E-02 -1.30808956E+00  2.43112176E-03 -3.34572906E-02
  1.44317515E-01  3.92490427E+00  5.41647287E-03  1.20754139E+00 -1.10743449E+00
  1.12795271E-01  6.87374603E-02 -8.05720425E-01 -1.66121120E+00
Total SCF Density                          R   N=         253
  2.09148034E+00 -1.99706768E-01  5.82174383E-01  2.31049014E-02 -6.32818215E-02
  5.23123389E-01  3.63516966E-04 -8.69534380E-03 -6.21547449E-03  9.26026415E-01
  2.73049531E-02 -6.17251349E-02  2.15211986E-02  2.11835189E-02  4.40912906E-01
 -2.95430787E-01  6.25145782E-01 -8.93675859E-02  1.44669251E-02 -1.37173371E-01
  6.88060010E-01  8.38091919E-03 -3.37654784E-02  3.41062032E-01 -4.00230350E-03
  2.15051022E-02 -5.15286486E-02  2.22717921E-01 -1.57363442E-03 -3.23946656E-03
 -2.02307546E-03  6.41382995E-01  2.66775110E-02  1.08758333E-02 -1.00333837E-03
  4.44614981E-01  6.33321851E-03 -3.23459619E-02  3.60705208E-02  2.67037397E-02
  2.46068244E-01 -7.40246503E-02  2.77809708E-02  2.52460116E-02  1.39278240E-01
 -4.98937775E-03  1.57647332E-02  5.24242367E-03  4.00991515E-04 -1.84401688E-02
  2.90789867E-02  4.15400912E-03 -1.64418825E-03 -9.21681527E-05  2.08780832E+00
  1.51416087E-02 -4.59033290E-02 -8.35977597E-03 -1.23910635E-03  2.92987400E-02
 -6.53510511E-02 -7.61193160E-03  1.49853688E-03  9.71770304E-05 -1.83154564E-01
  5.41077664E-01 -7.57182212E-03  2.18747009E-02 -3.03519191E-02  9.64252068E-04
 -1.29448229E-02  3.54992448E-02 -2.50460612E-02 -5.11525859E-04 -1.12734286E-02
 -9.73400846E-04 -3.77305644E-03  9.02642676E-01  2.91029101E-03 -1.22568804E-03
  5.79734730E-03 -9.11308242E-02 -4.68271790E-02 -6.82082540E-03  9.07944267E-03
 -6.34641005E-02 -3.25442977E-02  2.13117920E-02 -3.10672437E-02  4.95095888E-04
  7.17980672E-01  1.17616816E-02 -2.43631381E-02 -4.96618198E-03  3.89892806E-02
 -4.27664621E-01  4.44814433E-02 -1.28881562E-02  1.48840716E-02 -2.39390008E-01
 -2.49674064E-02  6.41573596E-02  2.79150458E-03 -5.93922128E-02  4.58296292E-01
  3.11784519E-02 -7.37777311E-02 -3.63562048E-02 -1.42153415E-03  6.62202596E-02
 -9.46224183E-02 -2.84950765E-02  1.56034415E-03  2.19380529E-02 -2.69615861E-01
  5.31433798E-01  2.29639098E-02 -3.54017667E-01  7.25808177E-02  6.78172737E-01
 -4.82533371E-03  1.46030717E-02 -3.74979417E-02  1.47175403E-03 -3.49357227E-03
  2.39784199E-02 -2.81828345E-02  2.62181584E-04 -5.67175047E-03 -2.13075920E-03
 -1.38733942E-04  6.53529165E-01 -9.14106397E-04 -3.49008052E-03  2.08077302E-02
  4.73738961E-01 -7.65054591E-03  1.73292374E-02  6.06123382E-03 -5.33334504E-02
  1.88279752E-02  1.14691600E-02  7.18796895E-03 -3.61471061E-02  1.02408970E-02
  3.30661718E-02 -8.72054689E-02  3.86416850E-03  2.72336126E-01 -7.47398156E-02
 -2.04739483E-01  2.39393696E-03  1.18580342E-01 -1.34493666E-02  2.05627743E-02
  1.22280521E-02  2.80480868E-02 -2.58099717E-01  6.36953522E-02  2.49902397E-03
  1.25130781E-02 -1.43665924E-01 -1.68484972E-02  5.51463942E-02 -7.26806103E-03
 -5.96383556E-02  2.78164235E-01  6.66709782E-02 -9.11576050E-03 -5.54130900E-02
  1.73258184E-01 -1.57422057E-03 -1.72785197E-03  2.69969639E-01 -2.97750090E-04
 -6.43680268E-03 -1.12018487E-02  1.76499121E-01  8.01688575E-04  9.37060519E-03
  2.47966466E-03 -4.28566513E-03 -8.49703495E-02 -2.16653082E-03  1.24433310E-02
 -2.09722749E-02 -6.98374048E-02  2.97469811E-05  1.83214630E-02  1.47099371E-01
  1.88916409E-02 -4.75904774E-02  3.23334989E-01  3.46770752E-03 -2.09663430E-02
 -5.96670112E-02  2.10491674E-01  2.90609072E-03  3.44441127E-03 -1.08749137E-03