XYG3 Energy                                                             
SP        RXYG3-Full                                                  6-31G               
Number of atoms                            I                4
Info1-9                                    I   N=           9
          13          12           0           0           0         110
           1           2        -902
Full Title                                 C   N=           1
XYG3 Energy 
Route                                      C   N=           6
#p XYG3(Full)/6-31G nosymm SCF(VeryTight) Integral(Grid=9959
0)          
Charge                                     I                0
Multiplicity                               I                1
Number of electrons                        I               18
Number of alpha electrons                  I                9
Number of beta electrons                   I                9
Number of basis functions                  I               22
Number of independent functions            I               22
Number of point charges in /Mol/           I                0
Number of translation vectors              I                0
Atomic numbers                             I   N=           4
           8           8           1           1
Nuclear charges                            R   N=           4
  8.00000000E+00  8.00000000E+00  1.00000000E+00  1.00000000E+00
Current cartesian coordinates              R   N=          12
  0.00000000E+00  0.00000000E+00  0.00000000E+00  0.00000000E+00  0.00000000E+00
  2.83458920E+00  2.83458920E+00  0.00000000E+00  0.00000000E+00  0.00000000E+00
  1.32280829E+00  2.83458920E+00
Number of symbols in /Mol/                 I                0
Force Field                                I                0
Atom Types                                 C   N=           4
                                                
Int Atom Types                             I   N=           4
           0           0           0           0
MM charges                                 R   N=           4
  0.00000000E+00  0.00000000E+00  0.00000000E+00  0.00000000E+00
Integer atomic weights                     I   N=           4
          16          16           1           1
Real atomic weights                        R   N=           4
  1.59949146E+01  1.59949146E+01  1.00782504E+00  1.00782504E+00
Atom fragment info                         I   N=           4
           0           0           0           0
Atom residue num                           I   N=           4
           0           0           0           0
Nuclear spins                              I   N=           4
           0           0           1           1
Nuclear ZEff                               R   N=           4
 -5.60000000E+00 -5.60000000E+00 -1.00000000E+00 -1.00000000E+00
Nuclear ZNuc                               R   N=           4
  8.00000000E+00  8.00000000E+00  1.00000000E+00  1.00000000E+00
Nuclear QMom                               R   N=           4
  0.00000000E+00  0.00000000E+00  0.00000000E+00  0.00000000E+00
Nuclear GFac                               R   N=           4
  0.00000000E+00  0.00000000E+00  2.79284600E+00  2.79284600E+00
MicOpt                                     I   N=           4
          -1          -1          -1          -1
Number of residues                         I                0
Number of secondary structures             I                0
Number of contracted shells                I               10
Number of primitive shells                 I               28
Pure/Cartesian d shells                    I                1
Pure/Cartesian f shells                    I                0
Highest angular momentum                   I                1
Largest degree of contraction              I                6
Shell types                                I   N=          10
           0          -1          -1           0          -1          -1
           0           0           0           0
Number of primitives per shell             I   N=          10
           6           3           1           6           3           1
           3           1           3           1
Shell to atom map                          I   N=          10
           1           1           1           2           2           2
           3           3           4           4
Primitive exponents                        R   N=          28
  5.48467166E+03  8.25234946E+02  1.88046958E+02  5.29645000E+01  1.68975704E+01
  5.79963534E+00  1.55396162E+01  3.59993359E+00  1.01376175E+00  2.70005823E-01
  5.48467166E+03  8.25234946E+02  1.88046958E+02  5.29645000E+01  1.68975704E+01
  5.79963534E+00  1.55396162E+01  3.59993359E+00  1.01376175E+00  2.70005823E-01
  1.87311370E+01  2.82539436E+00  6.40121692E-01  1.61277759E-01  1.87311370E+01
  2.82539436E+00  6.40121692E-01  1.61277759E-01
Contraction coefficients                   R   N=          28
  1.83107443E-03  1.39501722E-02  6.84450781E-02  2.32714336E-01  4.70192898E-01
  3.58520853E-01 -1.10777550E-01 -1.48026263E-01  1.13076702E+00  1.00000000E+00
  1.83107443E-03  1.39501722E-02  6.84450781E-02  2.32714336E-01  4.70192898E-01
  3.58520853E-01 -1.10777550E-01 -1.48026263E-01  1.13076702E+00  1.00000000E+00
  3.34946043E-02  2.34726953E-01  8.13757326E-01  1.00000000E+00  3.34946043E-02
  2.34726953E-01  8.13757326E-01  1.00000000E+00
P(S=P) Contraction coefficients            R   N=          28
  0.00000000E+00  0.00000000E+00  0.00000000E+00  0.00000000E+00  0.00000000E+00
  0.00000000E+00  7.08742682E-02  3.39752839E-01  7.27158577E-01  1.00000000E+00
  0.00000000E+00  0.00000000E+00  0.00000000E+00  0.00000000E+00  0.00000000E+00
  0.00000000E+00  7.08742682E-02  3.39752839E-01  7.27158577E-01  1.00000000E+00
  0.00000000E+00  0.00000000E+00  0.00000000E+00  0.00000000E+00  0.00000000E+00
  0.00000000E+00  0.00000000E+00  0.00000000E+00
Coordinates of each shell                  R   N=          30
  0.00000000E+00  0.00000000E+00  0.00000000E+00  0.00000000E+00  0.00000000E+00
  0.00000000E+00  0.00000000E+00  0.00000000E+00  0.00000000E+00  0.00000000E+00
  0.00000000E+00  2.83458920E+00  0.00000000E+00  0.00000000E+00  2.83458920E+00
  0.00000000E+00  0.00000000E+00  2.83458920E+00  2.83458920E+00  0.00000000E+00
  0.00000000E+00  2.83458920E+00  0.00000000E+00  0.00000000E+00  0.00000000E+00
  1.32280829E+00  2.83458920E+00  0.00000000E+00  1.32280829E+00  2.83458920E+00
Num ILSW                                   I              100
ILSW                                       I   N=         100
           0           1           0           0           2           0
           0           0           0           0         402 67108864000
       99590           0           0           0           0           0
           0           0           0           0           0           0
           1           1           0           0           0           0
           0           0      100000           0          -1           0
           0           0           0           0           0           0
           0           0           0           1           0           0
           0           0           1           0           0           0
           0           0           4          52           0           0
           0           0          59           0           0           0
           1         402          -5           0           0           0
           0           0           0           0           0           0
           0           0           0           0           0           0
           0           0           0           0           0           0
           0           0           0           0           0           0
           0           0           0           0
Num RLSW                                   I               52
RLSW                                       R   N=          52
  8.00000000E-01  7.20000000E-01  1.00000000E+00  8.10000000E-01  2.00000000E-01
  0.00000000E+00  0.00000000E+00  1.00000000E+00  0.00000000E+00  0.00000000E+00
  0.00000000E+00  0.00000000E+00  1.00000000E+00  0.00000000E+00  0.00000000E+00
  0.00000000E+00  0.00000000E+00  1.00000000E+00  0.00000000E+00  0.00000000E+00
  0.00000000E+00  0.00000000E+00  1.00000000E+00  0.00000000E+00  0.00000000E+00
  0.00000000E+00  0.00000000E+00  1.00000000E+00  0.00000000E+00  0.00000000E+00
  0.00000000E+00  0.00000000E+00  1.00000000E+00  0.00000000E+00  0.00000000E+00
  0.00000000E+00  0.00000000E+00  0.00000000E+00  3.21100000E-01  3.21100000E-01
  8.00000000E-01  7.20000000E-01  1.00000000E+00  8.10000000E-01  1.96700000E-01
  2.10700000E-01  6.78900000E-01  6.78900000E-01  2.00000000E-01  8.03300000E-01
  0.00000000E+00  0.00000000E+00
MxBond                                     I                2
NBond                                      I   N=           4
           1           2           0           1
IBond                                      I   N=           8
           2           0           1           4           0           0
           2           0
RBond                                      R   N=           8
  1.00000000E+00  0.00000000E+00  1.00000000E+00  2.00000000E+00  0.00000000E+00
  0.00000000E+00  2.00000000E+00  0.00000000E+00
Virial Ratio                               R      2.000909902658991E+00
SCF Energy                                 R     -1.509292484904668E+02
MP2 Energy                                 R     -1.510775037475075E+02
Total Energy                               R     -1.510775037475075E+02
Post-SCF wavefunction norm                 R      1.161420553077281E+00
RMS Density                                R      6.817676512860989E-09
Nuclear derivative order                   I                0
External E-field                           R   N=          35
  0.00000000E+00  0.00000000E+00  0.00000000E+00  0.00000000E+00  0.00000000E+00
  0.00000000E+00  0.00000000E+00  0.00000000E+00  0.00000000E+00  0.00000000E+00
  0.00000000E+00  0.00000000E+00  0.00000000E+00  0.00000000E+00  0.00000000E+00
  0.00000000E+00  0.00000000E+00  0.00000000E+00  0.00000000E+00  0.00000000E+00
  0.00000000E+00  0.00000000E+00  0.00000000E+00  0.00000000E+00  0.00000000E+00
  0.00000000E+00  0.00000000E+00  0.00000000E+00  0.00000000E+00  0.00000000E+00
  0.00000000E+00  0.00000000E+00  0.00000000E+00  0.00000000E+00  0.00000000E+00
IOpCl                                      I                0
IROHF                                      I                0
Alpha Orbital Energies                     R   N=          22
 -1.92514630E+01 -1.91870256E+01 -1.18541214E+00 -9.17619607E-01 -5.26229117E-01
 -4.53493005E-01 -4.27685718E-01 -3.13528346E-01 -3.02837422E-01 -1.08182434E-01
 -2.02706040E-02  1.51081447E-01  6.75483291E-01  8.32751068E-01  8.57395579E-01
  9.08729519E-01  9.30777284E-01  9.93969601E-01  1.03643650E+00  1.32327496E+00
  1.40672141E+00  1.55288983E+00
Alpha MO coefficients                      R   N=         484
  9.95126277E-01  2.70928568E-02  9.18042911E-04  1.49447692E-04  1.44681970E-03
 -1.14375637E-02 -1.07737750E-03 -1.42810985E-04 -3.03908439E-03  3.65775049E-04
 -1.11144461E-04  3.35787006E-05  1.69690078E-04 -7.89771213E-05  1.88935267E-03
  1.23509036E-05 -6.58624257E-04 -2.35316522E-03  5.47546142E-04  1.11546575E-03
 -1.42701784E-04  1.70169839E-03 -4.32657410E-04 -9.21414297E-05  3.87487388E-06
  1.04314006E-04  2.27476881E-04  1.92968054E-03 -3.52329041E-05 -2.64044780E-04
  1.56970503E-03  9.94986567E-01  2.90639507E-02  4.89987478E-05  2.73612151E-03
 -1.28984602E-03 -1.54806305E-02 -4.29028887E-05 -2.93580995E-03  2.12812797E-03
 -1.88515169E-04  2.37993795E-04 -8.98355104E-04  6.17304292E-03 -9.17913776E-02
  2.00092927E-01  1.16750611E-02  1.16838343E-02  9.27629405E-02  1.83123956E-01
  1.26913858E-02  1.42677015E-02  4.01125665E-02 -1.86568336E-01  4.11350831E-01
  4.43155845E-03  1.80001632E-01 -8.12056149E-02  3.01069575E-01  4.66168124E-03
  2.40886953E-02 -2.61863520E-02  1.37739937E-02 -8.63665643E-04  2.34033527E-01
 -1.62385766E-02 -2.04186881E-01  4.66654592E-01  4.05493576E-02  1.88424999E-04
  3.04777801E-02  4.93288888E-01  3.34149720E-02  4.15293302E-03  2.96222175E-02
  8.74947114E-02 -2.06788271E-01  2.52404960E-03 -1.66110125E-01 -1.02686208E-01
 -1.49231771E-01 -1.30957367E-03 -1.60611884E-02 -3.04705311E-02  4.48996611E-02
  1.37067428E-02 -1.87415627E-01 -3.41575609E-02 -4.66435425E-02  1.11233935E-01
  5.28579731E-02  1.42342601E-01 -2.62507227E-01  1.59077930E-01  3.53806201E-02
  9.23545710E-02 -1.39843553E-01  7.72189882E-02 -1.64721407E-01  1.01961874E-02
  4.48289661E-01  1.73646767E-01 -3.86090059E-01  9.63622486E-04  1.67115496E-01
  9.44611867E-02  3.78178346E-02  3.54382110E-02  2.59098609E-01  1.36109544E-01
  1.78839842E-02 -5.06304269E-02  3.88886081E-01 -8.48953246E-02 -1.36132170E-01
 -4.46906027E-02  2.47167979E-01 -6.15239371E-02 -6.17101093E-02 -3.52963030E-02
  8.39811153E-02  2.83429986E-01 -1.25707818E-01  1.77068832E-01  1.25555709E-01
  1.91657512E-01 -6.90608905E-02  1.21566955E-01  1.83357969E-01  2.18562663E-01
 -4.33097135E-02 -9.40221827E-03 -4.63068485E-02  1.11447423E-01 -1.82714947E-01
 -1.46561575E-01 -3.47924653E-01  1.74258618E-01 -1.25513070E-01 -1.10631114E-01
 -2.05767465E-01 -5.70777623E-02  1.36370827E-01 -1.70317581E-01 -1.72442859E-01
  3.73570402E-01  2.01441938E-01 -1.22388899E-01 -1.13170001E-01  2.37050858E-01
 -6.13199426E-02 -5.23377287E-02 -4.30990094E-02  1.52198928E-02  2.95956808E-03
 -1.38989725E-02 -1.67403332E-02  6.42954509E-01 -2.59003052E-02  9.85283766E-03
 -1.35884474E-02  4.44069045E-01 -5.41606542E-03 -3.12436886E-02  7.00523760E-02
  1.80780180E-02 -2.28893131E-01  1.02648113E-01  1.42096937E-01  1.37573419E-02
 -1.13665786E-01  7.14853441E-02 -5.13436214E-03  3.09876878E-03 -1.23438540E-01
  7.95120064E-03 -2.64044838E-02  7.07059708E-02 -2.68493861E-01 -2.31775387E-02
 -4.19052196E-02  9.62339338E-02 -1.78320476E-01 -1.83156992E-02 -3.75098205E-02
  2.23563573E-04 -5.73617747E-03  5.84400472E-01  9.74570367E-03  2.02389489E-02
  1.81652436E-02  4.30051386E-01  4.30532961E-03  3.79278775E-04 -1.80296470E-01
 -2.41124969E-01  1.63604521E-03  4.66677256E-03  4.04753331E-02 -9.28240355E-02
 -4.61541706E-01 -8.28079134E-03 -1.15836554E-02 -2.73708033E-01 -4.28521535E-01
 -3.19594805E-03 -2.24549243E-02  7.20237652E-03 -1.89487438E-02  6.10610052E-02
 -3.04913355E-03 -4.92866010E-02 -5.32161113E-02  4.55403925E-02 -1.55878017E-02
 -5.41239856E-02  3.05270037E-01  7.71787134E-01 -1.85509265E-03  7.56045467E-02
 -4.72664890E-02  1.34197459E-01 -3.72383695E-02 -3.39038643E-02  5.42936449E-01
  2.79002701E-01 -2.80768602E-02 -4.58300917E-02  5.35014273E-01  6.23946822E-02
 -1.52900169E-01  4.02651783E-03  3.63555917E-02  5.14084482E-01 -4.98523321E-01
  1.03492991E-02  2.91292782E-03  5.31456733E-01  3.24052972E-02  1.93116122E-02
 -2.18418978E-02  2.86456460E-01  2.46250343E-02 -6.92448828E-02  6.10647484E-02
 -7.15621106E-02 -9.80809639E-02 -2.29361859E-01  4.25632515E-02 -7.71583071E-02
 -1.63968024E-01  5.91233685E-02 -8.32717608E-02 -1.77152414E-03 -2.31212161E-01
 -1.48130751E-01 -1.22177686E+00  6.38811455E-03 -5.29214787E-01 -1.84389560E-01
 -7.41571335E-02 -1.46756036E-01  4.36667692E-02  2.04802938E+00  1.07969600E-02
  8.94458129E-02  3.44588064E-01  3.49108418E-02  1.86351876E-01 -5.17792506E-01
 -5.18522041E-01 -1.73168481E-02 -3.07921942E-01  1.92335472E-03 -8.57824712E-02
 -9.99836457E-02  8.42770320E-02  9.44562329E-02  3.14682766E-01  7.79375255E-02
 -6.07833548E-03 -2.19036207E-01 -1.08838901E+00  1.29344130E+00 -2.85020864E-02
 -1.69346420E-01 -2.80458215E-02  1.41210315E-01 -3.67766373E-02  5.21842713E-01
 -3.50228583E-01  2.34448458E-01 -4.08060118E-03 -4.86424670E-01  7.72587953E-01
  5.01779119E-02 -1.97577136E-01 -1.54283166E-01  4.48899922E-01 -3.69306391E-01
 -5.92611671E-01  1.63376917E-01 -7.06805695E-01  7.63228704E-01 -8.90640472E-02
  1.01979110E-01  2.32803709E-01  2.95621843E-01 -3.65646919E-02  3.47072536E-01
 -2.92801242E-01 -2.79123959E-01 -2.47021850E-01 -1.71174976E-01  1.95344496E-01
  2.56302159E-01  4.07560616E-01 -1.57863580E-02  8.86986060E-02 -7.04696845E-01
 -2.27393829E-01 -1.29464892E-01  1.15823402E-01  7.43552900E-01  5.03342444E-01
  2.84794829E-01 -1.99292162E-01  1.13248336E-01 -2.08269623E-01 -3.14156737E-01
 -3.48927005E-02  2.44741750E-01  2.26373463E-01 -4.86467881E-01 -4.13819463E-01
  1.27104553E-01 -2.69432551E-01  5.75971868E-01  9.11995424E-01  2.61279099E-03
  6.08534748E-02  4.58323607E-01  4.68629016E-02 -3.42916263E-01 -1.48571746E-01
 -5.19192689E-01  1.57677834E-01  8.33226944E-01 -1.77011327E-01  4.75414874E-01
 -2.02158615E-01 -3.86848041E-01 -1.38896492E-02  1.94412079E-01  2.77901346E-02
  5.12644464E-01 -8.32567653E-03 -1.34274091E-01 -3.42826491E-02 -7.95449346E-01
  3.84738461E-02 -3.05454818E-02  4.96700649E-02  1.96220015E-01 -4.67189070E-01
 -2.43562480E-01  7.02067253E-01 -2.42473186E-01  1.39404670E+00  3.08778336E-01
 -9.57730318E-02  2.27424082E-01 -5.71881191E-01 -5.65112245E-01  2.88464117E-02
 -4.33502495E-01 -2.91556141E-02 -1.62502901E-01  5.42189795E-01  7.15006736E-01
  5.22546920E-02  1.98461545E-01 -5.32474690E-01  6.78765419E-03 -2.05158144E-01
 -1.12192317E-01  2.22204770E-01 -6.48506346E-01  7.23766347E-01  1.40849887E-01
  1.69869492E-01  7.95862523E-01  6.80808410E-02 -1.93157285E-01 -4.11792928E-01
 -2.76040936E-01 -1.72709919E-02  2.88423971E-01 -7.81341974E-01 -2.57804222E-02
  1.48782736E-01 -4.18858508E-01  1.10461519E+00  5.87501526E-02 -3.05417325E-01
  4.60931263E-03 -5.75654475E-02  3.26845315E-01  4.32486075E-02 -3.33195851E-02
  3.44694710E-02 -6.14380137E-01 -2.50076575E-01 -1.38340718E-01 -5.27405796E-01
  1.89499944E-01  1.43676402E-01  1.70162983E-01  5.77729607E-02 -1.04492899E+00
 -2.07478620E-01  1.41492710E-02 -3.69727691E-01  1.17377700E+00  3.68095424E-01
 -8.74935994E-02  5.80774787E-01 -1.32996987E-02  8.61871888E-02  1.54306582E-03
  4.10626535E-01  2.90873152E-01  2.48000453E-01 -5.70616824E-02  5.14005998E-01
  5.64309856E-03 -2.48529157E-01 -1.41354661E-01 -1.10773076E+00 -6.14704593E-02
 -3.36693255E-02  6.74751588E-01  5.43439324E-02  6.24315613E-02  2.08368674E-01
 -9.05283935E-01 -9.64938729E-02 -1.23232046E-01 -3.99504338E-01 -7.73147577E-02
  1.29211111E+00 -1.03394553E-02  5.62874018E-01 -5.44324618E-03 -1.54048119E+00
  3.33249742E-02 -5.04813315E-01 -2.99234355E-01  1.46311141E-01 -3.17575094E-02
 -7.78116377E-01  1.54591147E+00 -2.65031865E-03  8.86425477E-01  6.88647692E-02
 -4.18072304E-02  5.31261473E-03 -1.99056204E+00 -1.09519666E-01  1.65371938E-02
 -1.15594778E+00  1.05540297E-03 -1.23834675E+00 -7.64421668E-04  3.30143637E-01
  2.18707337E-01  3.17306564E+00  3.13054834E-02  5.66608794E-01 -1.30133898E+00
  3.12530422E-01 -1.53527865E-01 -9.97473614E-01 -4.30498060E-01
Total SCF Density                          R   N=         253
  2.09148034E+00 -1.99706769E-01  5.82174383E-01  2.31049012E-02 -6.32818210E-02
  5.23123388E-01  3.63516894E-04 -8.69534354E-03 -6.21547298E-03  9.26026415E-01
  2.73049530E-02 -6.17251350E-02  2.15211983E-02  2.11835191E-02  4.40912905E-01
 -2.95430787E-01  6.25145782E-01 -8.93675852E-02  1.44669254E-02 -1.37173369E-01
  6.88060008E-01  8.38091911E-03 -3.37654781E-02  3.41062031E-01 -4.00230260E-03
  2.15051018E-02 -5.15286481E-02  2.22717920E-01 -1.57363451E-03 -3.23946624E-03
 -2.02307463E-03  6.41382995E-01  2.66775110E-02  1.08758337E-02 -1.00333789E-03
  4.44614981E-01  6.33321863E-03 -3.23459621E-02  3.60705202E-02  2.67037394E-02
  2.46068244E-01 -7.40246498E-02  2.77809703E-02  2.52460113E-02  1.39278241E-01
 -4.98937777E-03  1.57647332E-02  5.24242360E-03  4.00991467E-04 -1.84401683E-02
  2.90789863E-02  4.15400907E-03 -1.64418823E-03 -9.21681511E-05  2.08780832E+00
  1.51416087E-02 -4.59033290E-02 -8.35977579E-03 -1.23910619E-03  2.92987389E-02
 -6.53510502E-02 -7.61193146E-03  1.49853689E-03  9.71768757E-05 -1.83154564E-01
  5.41077664E-01 -7.57182203E-03  2.18747007E-02 -3.03519180E-02  9.64251915E-04
 -1.29448231E-02  3.54992441E-02 -2.50460600E-02 -5.11525920E-04 -1.12734286E-02
 -9.73400838E-04 -3.77305641E-03  9.02642675E-01  2.91029099E-03 -1.22568800E-03
  5.79734689E-03 -9.11308235E-02 -4.68271786E-02 -6.82082586E-03  9.07944229E-03
 -6.34640998E-02 -3.25442977E-02  2.13117923E-02 -3.10672440E-02  4.95095853E-04
  7.17980671E-01  1.17616812E-02 -2.43631368E-02 -4.96618167E-03  3.89892807E-02
 -4.27664620E-01  4.44814434E-02 -1.28881557E-02  1.48840718E-02 -2.39390008E-01
 -2.49674063E-02  6.41573596E-02  2.79150407E-03 -5.93922125E-02  4.58296291E-01
  3.11784516E-02 -7.37777303E-02 -3.63562043E-02 -1.42153424E-03  6.62202580E-02
 -9.46224163E-02 -2.84950761E-02  1.56034386E-03  2.19380527E-02 -2.69615862E-01
  5.31433800E-01  2.29639093E-02 -3.54017665E-01  7.25808176E-02  6.78172738E-01
 -4.82533362E-03  1.46030715E-02 -3.74979405E-02  1.47175392E-03 -3.49357246E-03
  2.39784194E-02 -2.81828333E-02  2.62181547E-04 -5.67175049E-03 -2.13075920E-03
 -1.38733902E-04  6.53529165E-01 -9.14106400E-04 -3.49008078E-03  2.08077299E-02
  4.73738960E-01 -7.65054576E-03  1.73292371E-02  6.06123350E-03 -5.33334498E-02
  1.88279748E-02  1.14691596E-02  7.18796867E-03 -3.61471056E-02  1.02408967E-02
  3.30661716E-02 -8.72054682E-02  3.86416837E-03  2.72336127E-01 -7.47398147E-02
 -2.04739482E-01  2.39393687E-03  1.18580343E-01 -1.34493665E-02  2.05627742E-02
  1.22280522E-02  2.80480868E-02 -2.58099717E-01  6.36953516E-02  2.49902417E-03
  1.25130780E-02 -1.43665925E-01 -1.68484971E-02  5.51463941E-02 -7.26806114E-03
 -5.96383553E-02  2.78164235E-01  6.66709781E-02 -9.11576051E-03 -5.54130896E-02
  1.73258185E-01 -1.57422042E-03 -1.72785230E-03  2.69969638E-01 -2.97750804E-04
 -6.43680224E-03 -1.12018492E-02  1.76499121E-01  8.01687991E-04  9.37060513E-03
  2.47966464E-03 -4.28566508E-03 -8.49703493E-02 -2.16653053E-03  1.24433306E-02
 -2.09722747E-02 -6.98374044E-02  2.97470896E-05  1.83214627E-02  1.47099371E-01
  1.88916409E-02 -4.75904773E-02  3.23334991E-01  3.46770574E-03 -2.09663425E-02
 -5.96670113E-02  2.10491674E-01  2.90608937E-03  3.44441129E-03 -1.08749128E-03
  7.59541287E-03 -1.39208251E-01 -1.61077061E-02  3.88055054E-02 -6.06082880E-03
 -1.10693173E-01 -9.76305616E-03  3.44874767E-02  1.77373835E-01  2.20211033E-01
  1.07427265E-02 -2.51845452E-02  2.97497589E-03 -5.96601686E-02 -5.59969045E-02
 -3.00194908E-02  3.93057816E-03 -4.18450597E-02 -4.05000461E-02 -6.62039680E-02
  1.48297730E-01 -6.00862990E-03  4.61106919E-01  1.76520670E-02 -6.64465369E-02
 -4.86852000E-03  1.47712218E-01 -4.99515351E-04 -7.04459163E-04 -3.15309436E-03
  3.52004463E-01  5.66912758E-03 -3.22352086E-03 -4.40398403E-03  4.55011375E-02
 -8.53803793E-02  1.08421756E-02 -3.41664623E-03  2.90699980E-02 -4.69247570E-02
  3.18194428E-02 -4.00822580E-02 -2.31219887E-03  1.21135006E-01  6.67690952E-02
 -9.86688011E-02 -2.89693026E-03  4.18548360E-02  3.47345675E-02 -2.99356504E-04
  8.40993879E-04  7.32773800E-02  4.08045755E-02
Mulliken Charges                           R   N=           4
 -2.78948486E-01 -2.83611675E-01  2.64767217E-01  2.97792944E-01
ONIOM Charges                              I   N=          16
           0           0           0           0           0           0
           0           0           0           0           0           0
           0           0           0           0
ONIOM Multiplicities                       I   N=          16
           1           0           0           0           0           0
           0           0           0           0           0           0
           0           0           0           0
Atom Layers                                I   N=           4
           1           1           1           1
Atom Modifiers                             I   N=           4
           0           0           0           0
Force Field                                I                0
Atom Modified Types                        C   N=           4
                                                
Int Atom Modified Types                    I   N=           4
           0           0           0           0
Link Atoms                                 I   N=           4
           0           0           0           0
Atom Modified MM Charges                   R   N=           4
  0.00000000E+00  0.00000000E+00  0.00000000E+00  0.00000000E+00
Link Distances                             R   N=          16
  0.00000000E+00  0.00000000E+00  0.00000000E+00  0.00000000E+00  0.00000000E+00
  0.00000000E+00  0.00000000E+00  0.00000000E+00  0.00000000E+00  0.00000000E+00
  0.00000000E+00  0.00000000E+00  0.00000000E+00  0.00000000E+00  0.00000000E+00
  0.00000000E+00
Cartesian Gradient                         R   N=          12
  0.00000000E+00  0.00000000E+00  0.00000000E+00  0.00000000E+00  0.00000000E+00
  0.00000000E+00  0.00000000E+00  0.00000000E+00  0.00000000E+00  0.00000000E+00
  0.00000000E+00  0.00000000E+00
