MP2 Energy                                                              
SP        RMP2-Full                                                   6-31G               
Number of atoms                            I                4
Info1-9                                    I   N=           9
          13          12           0           0           0         110
           1           2           2
Full Title                                 C   N=           1
MP2 Energy  
Route                                      C   N=           4
#p RMP2(Full)/6-31G nosymm SCF(VeryTight)       
Charge                                     I                0
Multiplicity                               I                1
Number of electrons                        I               18
Number of alpha electrons                  I                9
Number of beta electrons                   I                9
Number of basis functions                  I               22
Number of independent functions            I               22
Number of point charges in /Mol/           I                0
Number of translation vectors              I                0
Atomic numbers                             I   N=           4
           8           8           1           1
Nuclear charges                            R   N=           4
  8.00000000E+00  8.00000000E+00  1.00000000E+00  1.00000000E+00
Current cartesian coordinates              R   N=          12
  0.00000000E+00  0.00000000E+00  0.00000000E+00  0.00000000E+00  0.00000000E+00
  2.83458919E+00  2.83458919E+00  0.00000000E+00  0.00000000E+00  0.00000000E+00
  1.32280829E+00  2.83458919E+00
Number of symbols in /Mol/                 I                0
Force Field                                I                0
Atom Types                                 C   N=           4
                                                
Int Atom Types                             I   N=           4
           0           0           0           0
MM charges                                 R   N=           4
  0.00000000E+00  0.00000000E+00  0.00000000E+00  0.00000000E+00
Integer atomic weights                     I   N=           4
          16          16           1           1
Real atomic weights                        R   N=           4
  1.59949146E+01  1.59949146E+01  1.00782504E+00  1.00782504E+00
Atom fragment info                         I   N=           4
           0           0           0           0
Atom residue num                           I   N=           4
           0           0           0           0
Nuclear spins                              I   N=           4
           0           0           1           1
Nuclear ZEff                               R   N=           4
 -5.60000000E+00 -5.60000000E+00 -1.00000000E+00 -1.00000000E+00
Nuclear ZNuc                               R   N=           4
  8.00000000E+00  8.00000000E+00  1.00000000E+00  1.00000000E+00
Nuclear QMom                               R   N=           4
  0.00000000E+00  0.00000000E+00  0.00000000E+00  0.00000000E+00
Nuclear GFac                               R   N=           4
  0.00000000E+00  0.00000000E+00  2.79284600E+00  2.79284600E+00
MicOpt                                     I   N=           4
          -1          -1          -1          -1
Number of residues                         I                0
Number of secondary structures             I                0
Number of contracted shells                I               10
Number of primitive shells                 I               28
Pure/Cartesian d shells                    I                1
Pure/Cartesian f shells                    I                0
Highest angular momentum                   I                1
Largest degree of contraction              I                6
Shell types                                I   N=          10
           0          -1          -1           0          -1          -1
           0           0           0           0
Number of primitives per shell             I   N=          10
           6           3           1           6           3           1
           3           1           3           1
Shell to atom map                          I   N=          10
           1           1           1           2           2           2
           3           3           4           4
Primitive exponents                        R   N=          28
  5.48467166E+03  8.25234946E+02  1.88046958E+02  5.29645000E+01  1.68975704E+01
  5.79963534E+00  1.55396162E+01  3.59993359E+00  1.01376175E+00  2.70005823E-01
  5.48467166E+03  8.25234946E+02  1.88046958E+02  5.29645000E+01  1.68975704E+01
  5.79963534E+00  1.55396162E+01  3.59993359E+00  1.01376175E+00  2.70005823E-01
  1.87311370E+01  2.82539436E+00  6.40121692E-01  1.61277759E-01  1.87311370E+01
  2.82539436E+00  6.40121692E-01  1.61277759E-01
Contraction coefficients                   R   N=          28
  1.83107443E-03  1.39501722E-02  6.84450781E-02  2.32714336E-01  4.70192898E-01
  3.58520853E-01 -1.10777550E-01 -1.48026263E-01  1.13076702E+00  1.00000000E+00
  1.83107443E-03  1.39501722E-02  6.84450781E-02  2.32714336E-01  4.70192898E-01
  3.58520853E-01 -1.10777550E-01 -1.48026263E-01  1.13076702E+00  1.00000000E+00
  3.34946043E-02  2.34726953E-01  8.13757326E-01  1.00000000E+00  3.34946043E-02
  2.34726953E-01  8.13757326E-01  1.00000000E+00
P(S=P) Contraction coefficients            R   N=          28
  0.00000000E+00  0.00000000E+00  0.00000000E+00  0.00000000E+00  0.00000000E+00
  0.00000000E+00  7.08742682E-02  3.39752839E-01  7.27158577E-01  1.00000000E+00
  0.00000000E+00  0.00000000E+00  0.00000000E+00  0.00000000E+00  0.00000000E+00
  0.00000000E+00  7.08742682E-02  3.39752839E-01  7.27158577E-01  1.00000000E+00
  0.00000000E+00  0.00000000E+00  0.00000000E+00  0.00000000E+00  0.00000000E+00
  0.00000000E+00  0.00000000E+00  0.00000000E+00
Coordinates of each shell                  R   N=          30
  0.00000000E+00  0.00000000E+00  0.00000000E+00  0.00000000E+00  0.00000000E+00
  0.00000000E+00  0.00000000E+00  0.00000000E+00  0.00000000E+00  0.00000000E+00
  0.00000000E+00  2.83458919E+00  0.00000000E+00  0.00000000E+00  2.83458919E+00
  0.00000000E+00  0.00000000E+00  2.83458919E+00  2.83458919E+00  0.00000000E+00
  0.00000000E+00  2.83458919E+00  0.00000000E+00  0.00000000E+00  0.00000000E+00
  1.32280829E+00  2.83458919E+00  0.00000000E+00  1.32280829E+00  2.83458919E+00
Num ILSW                                   I              100
ILSW                                       I   N=         100
           0           1           0           0           2           0
           0           0           0           0           0          -1
           5           0           0           0           0           0
           0           0           0           0           0           0
           1           1           0           0           0           0
           0           0      100000           0          -1           0
           0           0           0           0           0           0
           0           0           0           1           0           0
           0 -2000000000           1           0           0           0
           0           0           4          52           0           0
           0           0           0           0           0           0
           0           0           0           4           0           1
           0           0           0           0           0           0
           0           0           0           0           0           0
           0           0           0           0           0           0
           0           0           0           0           0           0
           0           0           0           0
Num RLSW                                   I               52
RLSW                                       R   N=          52
  1.00000000E+00  1.00000000E+00  1.00000000E+00  1.00000000E+00  1.00000000E+00
  0.00000000E+00  0.00000000E+00  1.00000000E+00  0.00000000E+00  0.00000000E+00
  0.00000000E+00  0.00000000E+00  1.00000000E+00  0.00000000E+00  0.00000000E+00
  0.00000000E+00  0.00000000E+00  1.00000000E+00  0.00000000E+00  0.00000000E+00
  0.00000000E+00  0.00000000E+00  1.00000000E+00  0.00000000E+00  0.00000000E+00
  0.00000000E+00  0.00000000E+00  1.00000000E+00  0.00000000E+00  0.00000000E+00
  0.00000000E+00  0.00000000E+00  1.00000000E+00  0.00000000E+00  0.00000000E+00
  0.00000000E+00  0.00000000E+00  0.00000000E+00  1.00000000E+00  1.00000000E+00
  0.00000000E+00  1.00000000E+00  0.00000000E+00  0.00000000E+00  0.00000000E+00
  0.00000000E+00  0.00000000E+00  0.00000000E+00  0.00000000E+00  0.00000000E+00
  0.00000000E+00  0.00000000E+00
MxBond                                     I                2
NBond                                      I   N=           4
           1           2           0           1
IBond                                      I   N=           8
           2           0           1           4           0           0
           2           0
RBond                                      R   N=           8
  1.00000000E+00  0.00000000E+00  1.00000000E+00  2.00000000E+00  0.00000000E+00
  0.00000000E+00  2.00000000E+00  0.00000000E+00
Virial Ratio                               R      1.997333259336775E+00
SCF Energy                                 R     -1.504564149649694E+02
MP2 Energy                                 R     -1.507361252007413E+02
Total Energy                               R     -1.507361252007413E+02
Post-SCF wavefunction norm                 R      1.053282450462076E+00
RMS Density                                R      7.458034345006582E-09
Job Status                                 I                1
Nuclear derivative order                   I                0
External E-field                           R   N=          35
  0.00000000E+00  0.00000000E+00  0.00000000E+00  0.00000000E+00  0.00000000E+00
  0.00000000E+00  0.00000000E+00  0.00000000E+00  0.00000000E+00  0.00000000E+00
  0.00000000E+00  0.00000000E+00  0.00000000E+00  0.00000000E+00  0.00000000E+00
  0.00000000E+00  0.00000000E+00  0.00000000E+00  0.00000000E+00  0.00000000E+00
  0.00000000E+00  0.00000000E+00  0.00000000E+00  0.00000000E+00  0.00000000E+00
  0.00000000E+00  0.00000000E+00  0.00000000E+00  0.00000000E+00  0.00000000E+00
  0.00000000E+00  0.00000000E+00  0.00000000E+00  0.00000000E+00  0.00000000E+00
IOpCl                                      I                0
IROHF                                      I                0
Alpha Orbital Energies                     R   N=          22
 -2.06905927E+01 -2.06183218E+01 -1.54059171E+00 -1.23187183E+00 -7.51869619E-01
 -6.32202170E-01 -5.85694246E-01 -5.27806331E-01 -4.74272700E-01  4.40260633E-02
  1.94257548E-01  3.00877319E-01  8.98986281E-01  1.09430793E+00  1.12801413E+00
  1.18102745E+00  1.18854726E+00  1.28318553E+00  1.33132651E+00  1.64026910E+00
  1.72232460E+00  1.84185759E+00
Alpha MO coefficients                      R   N=         484
  9.95970358E-01  2.08276544E-02  9.93415281E-04  1.20469989E-04  1.44378743E-03
 -6.71983605E-03 -8.49372365E-04 -9.67581666E-05 -2.00303249E-03  1.74756879E-03
  9.14489460E-05  1.23413119E-05  8.84512796E-05 -1.69167017E-04  9.26222357E-04
  4.22753763E-05 -4.70685737E-04 -1.34288524E-03  4.25491626E-04  7.18469000E-04
 -3.10996108E-05  1.12650264E-03 -1.80221454E-03  4.11925265E-05  6.76116775E-06
  5.13566640E-05  2.65660260E-04  1.06638031E-03 -3.52926703E-05 -1.20142051E-04
  8.72045621E-04  9.95728329E-01  2.28192893E-02  6.46943833E-05  2.42821127E-03
 -1.31727653E-03 -9.65742843E-03 -3.93205029E-05 -2.22317615E-03  1.45101698E-03
 -1.09661564E-04  1.58846318E-04 -3.26168544E-04  4.02188649E-03 -9.45157877E-02
  2.08701125E-01  5.70739868E-03  1.08728171E-02  7.78418596E-02  1.91212733E-01
  1.22551339E-02  1.30501191E-02  3.61072014E-02 -1.88309840E-01  4.16899896E-01
  5.03341380E-03  1.57122274E-01 -6.04806014E-02  3.24365306E-01  4.88721973E-03
  2.19606798E-02 -2.28097362E-02  1.41867820E-02 -2.60089925E-04  2.23638179E-01
 -2.92134116E-02 -2.03674745E-01  4.65500232E-01  1.67892660E-02  3.47041582E-04
 -5.58333319E-03  5.08314727E-01  2.84551251E-02  3.91421451E-03  2.38732327E-02
  9.17853441E-02 -2.14074287E-01  1.30265129E-03 -1.44236004E-01 -9.38625035E-02
 -1.79615178E-01 -2.21666061E-03 -1.38281771E-02 -2.24176501E-02  4.23889826E-02
  1.36117108E-02 -1.77035409E-01 -2.14464523E-02 -2.85825640E-02  7.04047456E-02
  3.70035914E-04  1.83489646E-01 -1.23435792E-01  1.01176237E-01  5.16209057E-03
  1.19328373E-01 -6.75982097E-02  8.48866684E-02 -1.86603661E-01 -1.17999630E-02
  5.08483665E-01  1.22411326E-02 -4.15122382E-01 -1.18972303E-02  2.13149269E-01
  8.97442954E-03  9.72393160E-03  5.67639572E-03  2.84728303E-01  9.81508557E-02
  1.86126805E-02 -5.93350630E-02  3.22762816E-01 -7.50275897E-03 -1.06928524E-02
 -4.42209333E-02  2.33238795E-01 -4.81617164E-03  6.47824261E-03  1.84968656E-03
 -2.47399302E-03  4.78935004E-01  6.84263116E-03  2.82343906E-02 -1.75150193E-02
  3.31331671E-01  2.54529907E-03  2.67741218E-02  1.32283422E-01  1.54367094E-01
  5.02675262E-03  5.15184913E-03  3.88412626E-02 -1.04103792E-01  8.23564283E-03
  2.54378306E-01  4.03620328E-01 -1.53723550E-01  7.96784967E-03  1.83540954E-01
  2.63280046E-01  2.71206730E-02 -8.61904477E-02  4.17503980E-02  5.19514454E-03
 -3.96214941E-01 -3.82211274E-02  3.68101023E-02  4.62294547E-02 -2.83366429E-01
 -2.40413788E-02 -4.80284884E-02 -6.47151794E-02 -6.49156020E-02 -6.30267156E-03
  1.23439552E-02 -7.58322048E-03  6.03053558E-01 -1.14239893E-01  4.66089089E-02
 -7.93078420E-03  4.21548870E-01 -6.86198582E-02 -3.36069759E-02  8.42214388E-02
 -3.31137172E-03 -2.22984119E-01  1.93629131E-01  1.44096832E-01 -3.67497233E-03
 -1.29713216E-01  1.42425612E-01  5.65054274E-03  2.00678399E-02 -1.09297358E-01
  1.42380972E-02 -2.69005696E-02  8.54467673E-02 -3.80460869E-01 -5.72202413E-03
 -4.34539987E-02  7.85780396E-02 -3.00852523E-01 -6.38539308E-03 -4.82179613E-02
 -1.45283158E-03 -3.45575400E-03  4.70134354E-01  3.44325186E-03  9.01786075E-03
  3.34406497E-02  3.61642321E-01  1.57318091E-03 -1.26067945E-02 -1.92513009E-01
 -2.61187742E-01 -2.19616036E-03  4.78084161E-03  4.37062743E-02 -8.11711712E-02
 -3.96285446E-01 -5.93132849E-03 -3.82795056E-05 -3.33885673E-01 -4.84622967E-01
 -3.50812385E-03 -1.38259374E-02  6.75545625E-03 -1.41916480E-02  3.41843447E-02
 -5.20061728E-03 -4.36144743E-02 -6.61321322E-02  2.54912197E-02 -2.24785145E-02
 -5.64377994E-02  2.39893368E-01  8.85296521E-01 -3.51483212E-03  8.92992727E-02
  4.69902328E-02 -1.19522557E-01  2.19631643E-02  3.94792912E-02 -4.55061378E-01
 -3.11689418E-01  1.86553484E-02  6.62569726E-02 -6.08958839E-01 -7.57822172E-02
  1.43088497E-01 -2.12827303E-03 -1.27271308E-03 -4.20257780E-01  8.48363708E-01
 -1.33604559E-02  1.06388629E-01 -5.96791069E-01 -1.93666906E-02  2.96156443E-02
  2.51181832E-02 -7.25182483E-01  3.51297429E-02 -8.78222147E-02  6.24795976E-02
 -4.89814330E-02 -1.87926119E-01 -3.30616155E-01  6.61910463E-02 -6.57397707E-02
 -3.41719469E-01  4.01583738E-02 -5.23352626E-03 -3.40306557E-03 -1.91127647E-01
 -2.26166039E-01 -1.12924286E+00  4.58807098E-03 -5.70819056E-01 -3.66679448E-01
 -7.01239726E-02 -1.77324784E-01  2.70407397E-02  2.02303937E+00  7.67864422E-05
  1.54893345E-01  3.28424357E-01  3.02498356E-02  1.56538748E-01 -5.10628898E-01
 -4.34187011E-01 -1.78021606E-02 -2.19013782E-01  3.78742166E-03 -9.10080362E-02
 -1.03079188E-01  6.90004959E-02  7.62405313E-02  2.91771773E-01  6.56798800E-02
  2.47541848E-02 -1.40908790E-01 -1.15354218E+00  1.26921634E+00 -3.25722190E-02
 -1.87281281E-01  1.30559530E-02 -1.55531376E-02  2.95182119E-04 -5.25131745E-01
  2.61530030E-01 -2.58583570E-01  3.75614472E-03  4.44576173E-01 -5.55950628E-01
 -5.29594395E-02  2.06975949E-01  3.82150679E-02 -5.21180841E-01  2.62979750E-01
  7.26071211E-01 -4.44460313E-02  1.05495086E+00 -5.28516617E-01  8.67540516E-03
  2.80363225E-03 -4.59628739E-01 -4.51897398E-01 -3.87419712E-02  3.72442186E-01
 -2.83676988E-01 -1.23445993E-01 -3.62244118E-01 -1.25401121E-01  1.70156912E-01
  1.01848279E-01  5.73508911E-01 -6.54846808E-03  5.43098673E-02 -7.20482472E-01
 -1.29491715E-01 -2.39201441E-01 -2.78271502E-02  7.73185358E-01  3.43164972E-01
  4.36676573E-01 -1.30428026E-01  6.09509994E-02 -1.63738441E-01 -2.08806678E-01
 -1.87350968E-02  9.13656263E-02  9.66116305E-02 -7.33439603E-01 -2.98616014E-01
  1.41662277E-01 -9.51412920E-02  9.87240937E-01  6.18713101E-01  1.92781683E-02
  3.74928781E-02  2.18843657E-01  2.92759779E-01 -1.04206650E-01 -6.08231950E-01
 -2.51138665E-01 -8.01935763E-01  3.95887863E-01 -9.30514240E-02  1.99887481E-01
  2.93069230E-01  7.74728534E-02 -3.23999995E-02  3.06612036E-01  1.17498771E-01
  1.61748297E-01 -3.70430115E-01 -2.32017493E-03 -9.80949847E-02 -3.00710204E-01
  7.01304308E-01 -1.43956236E-02  4.52717627E-02  4.88431612E-01 -2.27528183E-01
 -4.68541154E-01  3.11241552E-01 -5.83266860E-01  9.54794711E-01  8.09920430E-01
 -1.83398615E-01  4.23615949E-01 -5.10774117E-01 -5.38812385E-01  3.39557442E-02
 -5.48002326E-01  1.37759734E-01 -1.55139486E-01  4.44633028E-01  8.66611160E-01
 -1.79826555E-01  1.84495178E-01 -3.58471227E-01  9.91177763E-03 -2.76372283E-01
 -1.61016542E-01  2.11765688E-01 -6.52532812E-01  8.14013007E-01  2.39260532E-01
  2.61490430E-01  8.53018515E-01  1.25102404E-01 -1.78322180E-01 -4.51235840E-01
 -4.05051101E-01 -8.99108300E-03  1.98633801E-01 -8.32078189E-01 -3.81032500E-02
  3.00169611E-01 -2.97649945E-01  1.11038462E+00  6.69607438E-02 -4.79473546E-01
  5.08579393E-03 -1.20398896E-01  2.37233835E-01  7.06652704E-02 -1.41170355E-01
  2.49946529E-01 -4.91819924E-01 -1.83649830E-01 -4.25090130E-02 -4.35990920E-01
  6.33776333E-02  5.39372624E-02  1.12967576E-01  6.07275989E-02 -1.20114931E+00
 -2.46527472E-01 -1.97046524E-03 -4.59297880E-01  1.43378918E+00  4.00602496E-01
 -4.06450630E-02  7.59013295E-01  5.64810977E-03 -1.32812833E-01  6.84227586E-03
  2.56868254E-01  3.09683876E-01  3.27498148E-01 -7.09687019E-02  4.99078180E-01
  1.18535012E-01 -3.10880386E-01 -1.05067859E-01 -7.67284621E-01 -3.57374360E-01
  1.76776646E-02 -2.25257174E-01  1.78262049E-03 -6.50384586E-02 -1.41314233E-01
  1.84459372E-01 -3.35714267E-03  1.23371139E-01  4.28695204E-02  7.55458933E-02
 -1.47268091E+00  1.23366403E-02 -6.05146150E-01  1.31470339E-02  1.93809343E+00
 -1.76467799E-02  4.74179235E-01 -9.05238701E-03 -2.59860616E-02  3.03046435E-02
  8.13653676E-01 -1.45464476E+00 -2.69138439E-03  8.70647558E-01  7.24451332E-02
 -3.39979213E-02 -6.08453005E-03 -1.95764391E+00 -1.02687454E-01  3.95442290E-04
 -1.10302415E+00 -1.15564784E-02 -9.96232370E-01 -6.99999918E-04  4.86999976E-01
  2.62484375E-01  2.84402166E+00  3.03461033E-02  4.76949275E-01 -1.30395430E+00
  3.10597644E-01 -1.62939975E-01 -1.19968304E+00 -1.69547749E-01
Orthonormal basis                          R   N=         484
  2.44128527E-02  9.17872661E-02  1.19336663E-02  1.63339322E-02  5.97212374E-02
  1.44694736E-01  2.96775266E-02  4.26278788E-02  1.46277743E-01  4.93575738E-02
  1.76967706E-01  5.36997969E-03  6.45330312E-02 -3.92530255E-02  2.29657987E-01
  1.47940139E-02  9.76612356E-02 -8.27557743E-02  5.23683722E-02  1.03783984E-01
  1.99238763E-01  2.32544410E-01  6.45758535E-02  1.85688609E-01  1.05275883E-01
 -3.96967668E-02  3.84310112E-03  2.14364123E-01  2.01235599E-01 -7.75554556E-02
 -3.14255280E-02 -3.38999008E-02 -9.17586729E-02  6.05580683E-02 -1.11361920E-01
 -8.93948912E-02 -6.67322177E-02  1.20450822E-01 -1.46696103E-01 -1.85571459E-01
  2.10223486E-01  2.65535560E-01 -1.66207625E-01 -8.69508232E-02 -5.78149456E-02
 -1.41956859E-01  1.71577092E-01  7.96755122E-02 -1.31114391E-01 -1.33012882E-01
  2.76708684E-01  1.29185140E-01 -1.64341694E-01 -1.19963826E-02 -3.34540623E-02
  1.21322754E-01  1.51934398E-01  1.59245613E-01 -5.02144278E-02  1.98435412E-01
  1.94073039E-01  2.23065185E-01  1.72230357E-01  1.61879606E-01  1.14470672E-01
  4.41746029E-02  1.06392201E-01  2.24723452E-01 -9.57699041E-02  1.83930819E-01
 -9.98299873E-02  1.96279826E-01 -1.31955414E-01  2.53011717E-01 -1.71779633E-01
 -1.03509760E-01 -2.19352990E-01 -8.73234598E-02  2.23250036E-01 -7.35341544E-02
 -1.96910386E-01 -1.20242893E-01  2.84447175E-01 -1.43422393E-01 -2.79252114E-02
 -9.09296998E-03  5.02525554E-02 -1.03927130E-02 -1.11657145E-01 -1.97815882E-01
  8.71669439E-02  1.32398229E-01  3.31588338E-01 -1.94800420E-01  9.99620072E-02
  1.51648490E-01  3.14673993E-01 -6.80027716E-02 -1.18564050E-01  1.25485735E-01
  8.46754354E-02 -2.99750848E-01 -1.26470495E-01  1.42354594E-01  1.07428020E-01
 -2.61846083E-01 -3.06755666E-02 -6.28392952E-02 -1.20645769E-02 -7.59123169E-02
  1.15637021E-01  1.46857863E-01 -1.27646544E-01 -2.09831327E-01 -7.04866523E-02
  8.30734153E-02 -1.11717832E-01 -1.72426037E-01 -6.18977001E-02 -1.27831628E-02
 -1.70430360E-02  5.21267123E-01  1.24839020E-01 -1.21297271E-02 -1.97011719E-02
  4.25973286E-01  6.61193677E-02 -2.57559798E-02 -2.61190707E-01 -1.58525270E-01
  7.33190317E-02 -8.47566845E-03  5.57376864E-02  6.84921525E-02 -6.86084330E-02
  5.01583560E-01 -2.94159571E-02  4.63322149E-02 -5.79703620E-02  4.02224946E-01
 -6.66493655E-03  8.66249243E-02  1.09862491E-01  2.05387351E-01 -3.34591398E-01
  9.76194011E-02  1.03261194E-01  1.63862269E-01 -1.88509666E-01  7.64359652E-02
 -9.96743907E-02 -5.18115034E-02 -1.62287836E-01  3.31621799E-02  3.38816430E-01
  1.84639753E-01  6.54593877E-01  7.30713240E-03  1.74751074E-02  2.34391164E-02
  2.62035263E-01  3.58562218E-03  1.64169522E-02  5.22304453E-02  3.03285924E-02
 -1.33648361E-01  9.00926934E-03  3.56782122E-02  6.52441161E-03 -6.38693298E-02
  3.41656095E-04  1.62904879E-02 -3.94683504E-01 -2.70052129E-01  9.97191705E-03
 -2.94739032E-02 -3.06552439E-01 -9.40842410E-02  9.84618545E-02  2.80144852E-02
 -4.65607832E-01  1.52969681E-02  2.69433867E-02  1.03195627E-02 -1.78146433E-01
  5.46254990E-01  1.73971680E-01 -7.82213376E-03  1.97187305E-02 -4.65770279E-01
 -2.07581470E-02 -3.85204059E-03 -8.85066072E-03 -1.86987681E-01 -7.89071506E-02
 -3.87576970E-02  3.76788026E-02 -9.24601638E-02  5.30838995E-01 -3.02205628E-02
 -1.94702183E-01 -5.04152881E-03  2.67673236E-01 -1.14401787E-01 -1.45568109E-02
  8.90950243E-04  6.04704017E-02  7.21174468E-01 -2.96543211E-02 -1.09670958E-02
  1.63857145E-01  1.44061630E-01 -1.25397233E-01  1.98148387E-03  5.88201371E-02
  2.18425373E-02  1.96723944E-01  6.07323250E-02 -4.56601542E-02 -1.44260803E-01
  6.98110913E-01 -3.03678980E-01 -1.29082290E-01  2.04625047E-02 -3.76357998E-01
 -2.14704413E-01  1.40834135E-02 -5.43176299E-04  1.32474457E-02 -3.49182389E-01
  1.44941637E-01 -2.25211338E-02 -1.04512888E-01 -4.49386430E-01  7.11311465E-02
  3.22709259E-03 -4.64225368E-02  1.05913032E-02  1.29212917E-01  3.69650148E-02
  7.98523083E-02  2.82617109E-02 -2.96306303E-02  5.70118752E-02 -3.91954242E-02
  5.64678877E-01 -3.27298317E-02  1.68594939E-02  2.69950079E-02 -3.28049755E-01
  3.33965125E-02 -1.87821356E-01  3.74891549E-01 -2.00446481E-02  7.68266291E-01
  1.13292165E-01  9.04315700E-02  1.22727216E-02 -4.54667419E-01 -6.81383112E-02
  4.05861134E-02 -1.61811541E-02  3.54969607E-02 -4.18213828E-01  3.93215775E-02
 -1.13340215E-01  4.91337268E-01  2.64555603E-02 -2.19633729E-02  3.62827645E-02
 -3.86474170E-01 -2.37243654E-02  7.90690408E-03  3.65037634E-03 -1.37600528E-02
  8.64447120E-01  2.49124431E-02  3.93083759E-02  1.62924104E-03 -7.63330639E-01
 -1.72080011E-02 -3.93278049E-02  4.11385849E-01 -5.71308638E-02 -7.78146601E-03
  1.44592140E-02  7.14598651E-03 -3.70880861E-02 -3.51340489E-02 -4.80466761E-01
 -5.12255342E-01 -1.05537592E-01  4.86422673E-02  5.48336704E-01  4.40826323E-01
 -1.01177278E-01  3.85741481E-01 -2.57961028E-02  1.54339026E-02  6.70474640E-01
 -1.38540078E-01  2.84962679E-02  2.39303577E-02 -6.48327782E-01  1.03586140E-01
 -1.14600817E-01 -4.07386811E-02 -3.42983855E-01 -2.73007986E-02  1.18459070E-01
 -2.60299332E-02 -5.50748862E-01  5.68653434E-01  7.52789316E-02  3.92509574E-02
  6.67660682E-01 -5.58344013E-01 -1.55557007E-01  6.50401151E-01  5.18097462E-02
  2.10627529E-01 -3.92397463E-01  3.34665728E-02 -6.23883380E-02 -1.36700043E-01
  3.05592272E-01  6.16669338E-02 -3.12836270E-02 -1.44127194E-01 -3.00119975E-01
 -3.38727629E-02  1.74129216E-01 -1.59201430E-03 -3.30381727E-01 -3.63450851E-01
 -5.92495370E-02  4.80599128E-04  4.64423396E-01  5.33840967E-01  1.13504164E-01
 -5.90891947E-01  1.35876746E-02  6.46334133E-01 -2.18244502E-01  2.90700830E-01
 -1.87954672E-02 -5.49376018E-01  4.45676793E-01 -2.46191317E-02  3.11124285E-02
 -4.70882181E-01  3.74914042E-01 -1.47747140E-01  8.30367881E-01 -4.70937612E-01
  8.69982610E-02 -1.45826935E-01 -3.30397350E-01  7.50843213E-01 -1.35537611E-01
  3.53852927E-01 -1.86080318E-02  1.09817982E-01  2.31884764E-01 -2.22586098E-01
 -2.19851793E-01 -1.01274426E-01 -3.75854745E-01  2.45831837E-01  3.53479118E-01
  3.42355512E-01 -5.54999599E-01  1.29017032E-01 -1.98496272E-01 -5.88544578E-02
  3.79244633E-01  5.42705137E-01  2.94300138E-02 -5.45844920E-02 -9.88009491E-02
 -8.18060336E-01 -5.13290302E-02  1.78987780E-01 -1.43387669E-02  8.82450830E-02
 -4.12950220E-01 -8.33880977E-02 -1.53626006E-01 -4.92642152E-02  7.18274271E-01
  1.24311854E-01  2.43493032E-01  8.73711248E-01 -5.26854880E-01  2.50620162E-02
 -9.97736280E-02  1.01372124E-02 -1.18460404E-01 -7.04801355E-02 -1.45089024E-01
  1.39015673E-01  1.48842362E-01  1.75865645E-01  3.80085080E-01 -3.04096955E-01
  8.20137708E-02 -7.58281726E-01 -2.34101364E-02 -1.80080656E-01  5.24265778E-02
  1.54629832E-01  3.93762155E-02 -9.70036185E-01 -1.96773564E-01  2.64397246E-01
 -4.43281489E-01  1.44418340E+00 -2.67538351E-01 -5.44795351E-02  7.45047599E-01
  2.45223073E-01 -4.60576721E-02 -9.09387634E-02 -7.67384178E-01 -6.27918766E-01
  1.30092551E-01  4.39253246E-01  4.94822962E-03  4.12518244E-02  5.70214627E-02
 -2.41574364E-01 -1.60938336E-01 -2.61301270E-01 -8.68064135E-02 -8.35701539E-02
  3.99759177E-01 -5.98808082E-01  1.33965337E+00  7.18755933E-01 -6.48677884E-01
  3.08511774E-03 -1.04713549E+00 -3.22129050E-02 -3.88253283E-02 -2.36748180E-01
  2.12486640E+00  7.70531088E-02  8.65142408E-02  1.21494514E+00  1.45515898E-02
 -2.82353063E-01  2.10179659E-03 -2.76040106E-01 -2.07964424E-01  5.65862588E-01
 -1.75975268E-02  8.80578432E-01  1.33888045E+00 -1.67328623E-01  2.21488538E-02
  1.52931252E-01 -1.93496588E+00  2.10540817E-02  5.44813877E-01  3.34974027E-02
 -2.69189135E-02  8.20858025E-02 -1.51170814E+00 -9.47741595E-02  6.89709123E-03
 -1.16429945E+00 -3.57338418E-02 -1.30808956E+00  2.43112176E-03 -3.34572906E-02
  1.44317515E-01  3.92490427E+00  5.41647287E-03  1.20754139E+00 -1.10743449E+00
  1.12795271E-01  6.87374603E-02 -8.05720425E-01 -1.66121120E+00
Total SCF Density                          R   N=         253
  2.09162448E+00 -2.06658324E-01  5.74898037E-01  2.72592145E-02 -8.71159623E-02
  4.98734434E-01 -2.58487422E-04 -7.45932338E-03 -5.17364940E-03  9.24515510E-01
  3.22251116E-02 -8.30417288E-02  3.51559300E-02  2.46075446E-02  3.98583577E-01
 -2.80782983E-01  6.18853885E-01 -7.22637423E-02  1.94107002E-02 -1.41528305E-01
  6.78324830E-01  9.69288806E-03 -4.86484468E-02  3.80835871E-01 -3.38815923E-03
  2.97158415E-02 -3.64269646E-02  2.92052425E-01 -1.96664878E-03 -2.43733258E-03
 -1.25190267E-03  6.46033615E-01  2.50331173E-02  1.54066189E-02 -3.91324252E-04
  4.51759222E-01  7.47361667E-03 -3.78245116E-02  4.74090355E-02  2.76313723E-02
  2.54298068E-01 -7.10633143E-02  3.88679896E-02  2.43421805E-02  1.65679918E-01
 -4.07529416E-03  1.20147262E-02  4.26817916E-03  4.76214516E-04 -2.11055915E-02
  2.87115441E-02  4.11339479E-03 -2.55493650E-03  9.39561430E-05  2.08887869E+00
  1.14996366E-02 -3.18304045E-02 -4.23155687E-03 -1.75335849E-03  2.49084632E-02
 -6.18877082E-02 -5.67709610E-03  4.10151154E-03 -1.14893061E-02 -1.92881903E-01
  5.39030170E-01 -4.96343019E-03  1.63858437E-02 -4.77402352E-02  4.60040521E-04
 -1.29593778E-02  1.92432881E-02 -5.86762680E-02 -7.57833645E-04 -1.46729226E-02
 -6.38118630E-04 -5.32793054E-03  9.04650770E-01  3.43712686E-03 -3.90765172E-03
  2.59130346E-03 -7.65218933E-02 -4.47610919E-02 -6.09746513E-03  5.63173594E-03
 -6.18760031E-02 -3.11871219E-02  2.07948561E-02 -3.54093180E-02  9.08582402E-04
  7.07721119E-01  1.59817231E-02 -2.54484916E-02 -1.93213121E-03  3.45453574E-02
 -3.76859578E-01  2.27087092E-02 -8.33798003E-03  1.80262418E-02 -2.46214161E-01
 -2.94254561E-02  8.58430583E-02  1.50167091E-05 -6.95073232E-02  4.15953409E-01
  3.02245282E-02 -7.09377118E-02 -4.22012589E-02  8.81786317E-03  8.86750134E-02
 -1.10602783E-01 -3.77448085E-02  1.51893673E-02  2.75970210E-02 -2.56760709E-01
  5.32560053E-01  2.31132825E-02 -3.33137804E-01  7.00489628E-02  6.67089968E-01
 -3.47342660E-03  1.30310327E-02 -6.06637381E-02  9.23223331E-04 -4.23830056E-03
  1.30783544E-02 -6.25275867E-02 -1.25143810E-04 -8.84001893E-03 -1.92697924E-03
 -1.64093004E-03  6.60835832E-01 -8.77850764E-04 -5.82643589E-03  2.25528280E-02
  4.84209358E-01 -6.39621995E-03  1.34251725E-02  3.11786199E-03 -5.42957125E-02
  1.77142851E-02  1.11904866E-02  4.98773311E-03 -4.11004686E-02  1.41322790E-02
  3.21797169E-02 -8.52609014E-02  3.79097359E-03  2.86019007E-01 -8.15301148E-02
 -1.98610286E-01  2.38566209E-03  1.30165798E-01 -1.18826308E-02  2.79997102E-02
  1.90395398E-02  3.01401967E-02 -2.66282641E-01  6.63712774E-02  1.15603295E-02
  1.73340087E-02 -1.71116213E-01 -1.59235514E-02  6.00881784E-02 -1.13118846E-02
 -5.77494243E-02  2.88171843E-01  4.67005098E-02 -1.36217238E-02 -5.96133343E-02
  2.05129315E-01 -6.31390535E-03  3.32047263E-03  2.32991321E-01 -1.29140891E-03
 -7.46035206E-03  1.64451854E-02  1.79930324E-01  1.45891173E-04  8.57626578E-03
  3.23723025E-03 -4.18172931E-03 -5.63247677E-02 -1.66620226E-04  1.58017855E-02
 -2.81375323E-02 -5.36743777E-02 -2.48907345E-05  2.47974483E-02  1.14525835E-01