XYG3 Gradient                                                           
Force     RXYG3-Full                                                  6-31G               
Number of atoms                            I                4
Info1-9                                    I   N=           9
          13          12           0           0           0         100
           5           2        -902
Full Title                                 C   N=           2
XYG3 Gradient           
Route                                      C   N=           6
#p RXYG3(Full)/6-31G nosymm SCF(VeryTight) Integral(Grid=753
02) Force   
Charge                                     I                0
Multiplicity                               I                1
Number of electrons                        I               18
Number of alpha electrons                  I                9
Number of beta electrons                   I                9
Number of basis functions                  I               22
Number of independent functions            I               22
Number of point charges in /Mol/           I                0
Number of translation vectors              I                0
Atomic numbers                             I   N=           4
           8           8           1           1
Nuclear charges                            R   N=           4
  8.00000000E+00  8.00000000E+00  1.00000000E+00  1.00000000E+00
Current cartesian coordinates              R   N=          12
  0.00000000E+00  0.00000000E+00  0.00000000E+00  0.00000000E+00  0.00000000E+00
  2.83458920E+00  2.83458920E+00  0.00000000E+00  0.00000000E+00  0.00000000E+00
  1.32280829E+00  2.83458920E+00
Number of symbols in /Mol/                 I                0
Force Field                                I                0
Atom Types                                 C   N=           4
                                                
Int Atom Types                             I   N=           4
           0           0           0           0
MM charges                                 R   N=           4
  0.00000000E+00  0.00000000E+00  0.00000000E+00  0.00000000E+00
Integer atomic weights                     I   N=           4
          16          16           1           1
Real atomic weights                        R   N=           4
  1.59949146E+01  1.59949146E+01  1.00782504E+00  1.00782504E+00
Atom fragment info                         I   N=           4
           0           0           0           0
Atom residue num                           I   N=           4
           0           0           0           0
Nuclear spins                              I   N=           4
           0           0           1           1
Nuclear ZEff                               R   N=           4
 -5.60000000E+00 -5.60000000E+00 -1.00000000E+00 -1.00000000E+00
Nuclear ZNuc                               R   N=           4
  8.00000000E+00  8.00000000E+00  1.00000000E+00  1.00000000E+00
Nuclear QMom                               R   N=           4
  0.00000000E+00  0.00000000E+00  0.00000000E+00  0.00000000E+00
Nuclear GFac                               R   N=           4
  0.00000000E+00  0.00000000E+00  2.79284600E+00  2.79284600E+00
MicOpt                                     I   N=           4
          -1          -1          -1          -1
Number of residues                         I                0
Number of secondary structures             I                0
Number of contracted shells                I               10
Number of primitive shells                 I               28
Pure/Cartesian d shells                    I                1
Pure/Cartesian f shells                    I                0
Highest angular momentum                   I                1
Largest degree of contraction              I                6
Shell types                                I   N=          10
           0          -1          -1           0          -1          -1
           0           0           0           0
Number of primitives per shell             I   N=          10
           6           3           1           6           3           1
           3           1           3           1
Shell to atom map                          I   N=          10
           1           1           1           2           2           2
           3           3           4           4
Primitive exponents                        R   N=          28
  5.48467166E+03  8.25234946E+02  1.88046958E+02  5.29645000E+01  1.68975704E+01
  5.79963534E+00  1.55396162E+01  3.59993359E+00  1.01376175E+00  2.70005823E-01
  5.48467166E+03  8.25234946E+02  1.88046958E+02  5.29645000E+01  1.68975704E+01
  5.79963534E+00  1.55396162E+01  3.59993359E+00  1.01376175E+00  2.70005823E-01
  1.87311370E+01  2.82539436E+00  6.40121692E-01  1.61277759E-01  1.87311370E+01
  2.82539436E+00  6.40121692E-01  1.61277759E-01
Contraction coefficients                   R   N=          28
  1.83107443E-03  1.39501722E-02  6.84450781E-02  2.32714336E-01  4.70192898E-01
  3.58520853E-01 -1.10777550E-01 -1.48026263E-01  1.13076702E+00  1.00000000E+00
  1.83107443E-03  1.39501722E-02  6.84450781E-02  2.32714336E-01  4.70192898E-01
  3.58520853E-01 -1.10777550E-01 -1.48026263E-01  1.13076702E+00  1.00000000E+00
  3.34946043E-02  2.34726953E-01  8.13757326E-01  1.00000000E+00  3.34946043E-02
  2.34726953E-01  8.13757326E-01  1.00000000E+00
P(S=P) Contraction coefficients            R   N=          28
  0.00000000E+00  0.00000000E+00  0.00000000E+00  0.00000000E+00  0.00000000E+00
  0.00000000E+00  7.08742682E-02  3.39752839E-01  7.27158577E-01  1.00000000E+00
  0.00000000E+00  0.00000000E+00  0.00000000E+00  0.00000000E+00  0.00000000E+00
  0.00000000E+00  7.08742682E-02  3.39752839E-01  7.27158577E-01  1.00000000E+00
  0.00000000E+00  0.00000000E+00  0.00000000E+00  0.00000000E+00  0.00000000E+00
  0.00000000E+00  0.00000000E+00  0.00000000E+00
Coordinates of each shell                  R   N=          30
  0.00000000E+00  0.00000000E+00  0.00000000E+00  0.00000000E+00  0.00000000E+00
  0.00000000E+00  0.00000000E+00  0.00000000E+00  0.00000000E+00  0.00000000E+00
  0.00000000E+00  2.83458920E+00  0.00000000E+00  0.00000000E+00  2.83458920E+00
  0.00000000E+00  0.00000000E+00  2.83458920E+00  2.83458920E+00  0.00000000E+00
  0.00000000E+00  2.83458920E+00  0.00000000E+00  0.00000000E+00  0.00000000E+00
  1.32280829E+00  2.83458920E+00  0.00000000E+00  1.32280829E+00  2.83458920E+00
Num ILSW                                   I              100
ILSW                                       I   N=         100
           0           1           0           0           2           0
           0           0           0           0         402 67108864000
       75302           0           0           0           2           0
           0           0           0           0           1           0
           1           1           0           0           0           0
           0           0      100000           0          -1           0
           0           0           0           0           0           0
           0           0           0           1           0           0
           0           0           1           0           0           0
           0           0           4          52           0           0
           0           0          59           0           0           0
           1         402          -5           0           0           0
           0           0           0           0           0           0
           0           0           0           0           0           0
           0           0           0           0           0           0
           0           0           0           0           0           0
           0           0           0           0
Num RLSW                                   I               52
RLSW                                       R   N=          52
  8.00000000E-01  7.20000000E-01  1.00000000E+00  8.10000000E-01  2.00000000E-01
  0.00000000E+00  0.00000000E+00  1.00000000E+00  0.00000000E+00  0.00000000E+00
  0.00000000E+00  0.00000000E+00  1.00000000E+00  0.00000000E+00  0.00000000E+00
  0.00000000E+00  0.00000000E+00  1.00000000E+00  0.00000000E+00  0.00000000E+00
  0.00000000E+00  0.00000000E+00  1.00000000E+00  0.00000000E+00  0.00000000E+00
  0.00000000E+00  0.00000000E+00  1.00000000E+00  0.00000000E+00  0.00000000E+00
  0.00000000E+00  0.00000000E+00  1.00000000E+00  0.00000000E+00  0.00000000E+00
  0.00000000E+00  0.00000000E+00  0.00000000E+00  3.21100000E-01  3.21100000E-01
  8.00000000E-01  7.20000000E-01  1.00000000E+00  8.10000000E-01  1.96700000E-01
  2.10700000E-01  6.78900000E-01  6.78900000E-01  2.00000000E-01  8.03300000E-01
  0.00000000E+00  0.00000000E+00
MxBond                                     I                2
NBond                                      I   N=           4
           1           2           0           1
IBond                                      I   N=           8
           2           0           1           4           0           0
           2           0
RBond                                      R   N=           8
  1.00000000E+00  0.00000000E+00  1.00000000E+00  2.00000000E+00  0.00000000E+00
  0.00000000E+00  2.00000000E+00  0.00000000E+00
Virial Ratio                               R      2.000909924633927E+00
SCF Energy                                 R     -1.509292486990602E+02
MP2 Energy                                 R     -1.510775039985148E+02
Total Energy                               R     -1.510775039985148E+02
Post-SCF wavefunction norm                 R      1.161420662493824E+00
RMS Force                                  R      3.085956731191900E-01
RMS Density                                R      4.767633917006435E-09
Nuclear derivative order                   I                0
External E-field                           R   N=          35
  0.00000000E+00  0.00000000E+00  0.00000000E+00  0.00000000E+00  0.00000000E+00
  0.00000000E+00  0.00000000E+00  0.00000000E+00  0.00000000E+00  0.00000000E+00
  0.00000000E+00  0.00000000E+00  0.00000000E+00  0.00000000E+00  0.00000000E+00
  0.00000000E+00  0.00000000E+00  0.00000000E+00  0.00000000E+00  0.00000000E+00
  0.00000000E+00  0.00000000E+00  0.00000000E+00  0.00000000E+00  0.00000000E+00
  0.00000000E+00  0.00000000E+00  0.00000000E+00  0.00000000E+00  0.00000000E+00
  0.00000000E+00  0.00000000E+00  0.00000000E+00  0.00000000E+00  0.00000000E+00
IOpCl                                      I                0
IROHF                                      I                0
Alpha Orbital Energies                     R   N=          22
 -1.92514633E+01 -1.91870266E+01 -1.18541249E+00 -9.17619837E-01 -5.26229403E-01
 -4.53493138E-01 -4.27685957E-01 -3.13528757E-01 -3.02837843E-01 -1.08182750E-01
 -2.02707937E-02  1.51082250E-01  6.75482811E-01  8.32750765E-01  8.57395165E-01
  9.08728744E-01  9.30776809E-01  9.93969386E-01  1.03643666E+00  1.32327543E+00
  1.40672158E+00  1.55288857E+00
Alpha MO coefficients                      R   N=         484
  9.95126278E-01  2.70928532E-02  9.18040210E-04  1.49446768E-04  1.44681679E-03
 -1.14375599E-02 -1.07737597E-03 -1.42811009E-04 -3.03908259E-03  3.65780410E-04
 -1.11144186E-04  3.35787306E-05  1.69690036E-04 -7.89771256E-05  1.88935159E-03
  1.23506651E-05 -6.58624063E-04 -2.35316417E-03  5.47545697E-04  1.11546526E-03
 -1.42701682E-04  1.70169779E-03 -4.32662755E-04 -9.21415903E-05  3.87489259E-06
  1.04313963E-04  2.27476807E-04  1.92967995E-03 -3.52328711E-05 -2.64044412E-04
  1.56970457E-03  9.94986569E-01  2.90639380E-02  4.89995080E-05  2.73612191E-03
 -1.28984533E-03 -1.54806245E-02 -4.29036193E-05 -2.93581052E-03  2.12812725E-03
 -1.88515158E-04  2.37993881E-04 -8.98353345E-04  6.17304065E-03 -9.17913370E-02
  2.00092861E-01  1.16750593E-02  1.16838400E-02  9.27629155E-02  1.83123787E-01
  1.26913722E-02  1.42676669E-02  4.01124628E-02 -1.86568361E-01  4.11350809E-01
  4.43151510E-03  1.80001611E-01 -8.12055908E-02  3.01069995E-01  4.66180127E-03
  2.40888635E-02 -2.61864819E-02  1.37740067E-02 -8.63808768E-04  2.34033447E-01
 -1.62387767E-02 -2.04186903E-01  4.66654690E-01  4.05493249E-02  1.88465572E-04
  3.04777971E-02  4.93288864E-01  3.34148487E-02  4.15289927E-03  2.96221867E-02
  8.74946747E-02 -2.06788240E-01  2.52404553E-03 -1.66110085E-01 -1.02686261E-01
 -1.49231616E-01 -1.30958437E-03 -1.60611875E-02 -3.04705568E-02  4.48996217E-02
  1.37067386E-02 -1.87415553E-01 -3.41576279E-02 -4.66435723E-02  1.11234041E-01
  5.28575207E-02  1.42342810E-01 -2.62507147E-01  1.59077958E-01  3.53802333E-02
  9.23546745E-02 -1.39843442E-01  7.72189876E-02 -1.64721459E-01  1.01960266E-02
  4.48289765E-01  1.73646725E-01 -3.86089929E-01  9.63231440E-04  1.67115470E-01
  9.44612589E-02  3.78176483E-02  3.54385160E-02  2.59098771E-01  1.36109134E-01
  1.78837937E-02 -5.06298733E-02  3.88885971E-01 -8.48957511E-02 -1.36132793E-01
 -4.46899954E-02  2.47167934E-01 -6.15241479E-02 -6.17106198E-02 -3.52963235E-02
  8.39810363E-02  2.83430072E-01 -1.25707620E-01  1.77069584E-01  1.25556393E-01
  1.91657501E-01 -6.90605555E-02  1.21567385E-01  1.83357817E-01  2.18561978E-01
 -4.33095650E-02 -9.40294825E-03 -4.63068468E-02  1.11447364E-01 -1.82715629E-01
 -1.46561100E-01 -3.47924284E-01  1.74258741E-01 -1.25513375E-01 -1.10630722E-01
 -2.05767045E-01 -5.70777120E-02  1.36371067E-01 -1.70318155E-01 -1.72442910E-01
  3.73570253E-01  2.01440511E-01 -1.22389357E-01 -1.13170517E-01  2.37050933E-01
 -6.13201445E-02 -5.23379045E-02 -4.30989827E-02  1.52211130E-02  2.95951674E-03
 -1.38989209E-02 -1.67413185E-02  6.42954617E-01 -2.59003667E-02  9.85324020E-03
 -1.35889900E-02  4.44068844E-01 -5.41613313E-03 -3.12436887E-02  7.00524162E-02
  1.80808140E-02 -2.28893071E-01  1.02647824E-01  1.42096929E-01  1.37593576E-02
 -1.13665842E-01  7.14852366E-02 -5.13488379E-03  3.09777393E-03 -1.23438453E-01
  7.95108292E-03 -2.64045647E-02  7.07059606E-02 -2.68493488E-01 -2.31802737E-02
 -4.19052313E-02  9.62348064E-02 -1.78319694E-01 -1.83176295E-02 -3.75098221E-02
  2.23699431E-04 -5.73684910E-03  5.84399657E-01  9.74679481E-03  2.02387610E-02
  1.81656738E-02  4.30051630E-01  4.30622973E-03  3.78962361E-04 -1.80296395E-01
 -2.41127266E-01  1.63642792E-03  4.66593694E-03  4.04753071E-02 -9.28240388E-02
 -4.61541841E-01 -8.28088511E-03 -1.15839349E-02 -2.73707640E-01 -4.28521778E-01
 -3.19595100E-03 -2.24546199E-02  7.20221404E-03 -1.89482170E-02  6.10628289E-02
 -3.04926457E-03 -4.92869118E-02 -5.32144581E-02  4.55403982E-02 -1.55867706E-02
 -5.41235943E-02  3.05269139E-01  7.71787983E-01 -1.85511944E-03  7.56013694E-02
 -4.72664639E-02  1.34197262E-01 -3.72385700E-02 -3.39036374E-02  5.42936625E-01
  2.79002873E-01 -2.80772577E-02 -4.58298206E-02  5.35014538E-01  6.23946595E-02
 -1.52900269E-01  4.02672757E-03  3.63558201E-02  5.14084482E-01 -4.98522514E-01
  1.03492277E-02  2.91303255E-03  5.31456788E-01  3.24056075E-02  1.93122158E-02
 -2.18416904E-02  2.86454921E-01  2.46250511E-02 -6.92453154E-02  6.10642596E-02
 -7.15622210E-02 -9.80805376E-02 -2.29360814E-01  4.25630331E-02 -7.71579293E-02
 -1.63967205E-01  5.91235106E-02 -8.32725911E-02 -1.77039018E-03 -2.31212249E-01
 -1.48130983E-01 -1.22177737E+00  6.38761182E-03 -5.29215233E-01 -1.84388227E-01
 -7.41557390E-02 -1.46755963E-01  4.36678335E-02  2.04802914E+00  1.07969295E-02
  8.94461400E-02  3.44588430E-01  3.49100572E-02  1.86351378E-01 -5.17792832E-01
 -5.18521564E-01 -1.73166380E-02 -3.07921222E-01  1.92323644E-03 -8.57818471E-02
 -9.99794370E-02  8.42746557E-02  9.44561017E-02  3.14683630E-01  7.79329848E-02
 -6.07418921E-03 -2.19035733E-01 -1.08839044E+00  1.29344274E+00 -2.85035574E-02
 -1.69347482E-01 -2.80453502E-02  1.41205845E-01 -3.67733040E-02  5.21845568E-01
 -3.50224745E-01  2.34450649E-01 -4.08365506E-03 -4.86427504E-01  7.72582284E-01
  5.01780304E-02 -1.97577826E-01 -1.54278467E-01  4.48902336E-01 -3.69305493E-01
 -5.92611939E-01  1.63372168E-01 -7.06810184E-01  7.63226144E-01 -8.90642930E-02
  1.01980268E-01  2.32805324E-01  2.95624340E-01 -3.65645183E-02  3.47071175E-01
 -2.92800122E-01 -2.79116697E-01 -2.47021711E-01 -1.71174755E-01  1.95341940E-01
  2.56294860E-01  4.07559305E-01 -1.57857469E-02  8.86927320E-02 -7.04703064E-01
 -2.27389990E-01 -1.29465388E-01  1.15825326E-01  7.43560380E-01  5.03335865E-01
  2.84794370E-01 -1.99291225E-01  1.13247019E-01 -2.08266945E-01 -3.14152956E-01
 -3.48934256E-02  2.44749418E-01  2.26365889E-01 -4.86467028E-01 -4.13821639E-01
  1.27099549E-01 -2.69423184E-01  5.75970215E-01  9.11999372E-01  2.61249223E-03
  6.08575769E-02  4.58321798E-01  4.68601441E-02 -3.42918241E-01 -1.48576749E-01
 -5.19192210E-01  1.57681342E-01  8.33230001E-01 -1.77013453E-01  4.75414251E-01
 -2.02158838E-01 -3.86847524E-01 -1.38897178E-02  1.94412561E-01  2.77891169E-02
  5.12646715E-01 -8.32854038E-03 -1.34275411E-01 -3.42812067E-02 -7.95452334E-01
  3.84761345E-02 -3.05455226E-02  4.96713093E-02  1.96218289E-01 -4.67190855E-01
 -2.43557780E-01  7.02062611E-01 -2.42471026E-01  1.39404619E+00  3.08772517E-01
 -9.57700214E-02  2.27419644E-01 -5.71878831E-01 -5.65109422E-01  2.88463692E-02
 -4.33501837E-01 -2.91527937E-02 -1.62501381E-01  5.42189528E-01  7.15006438E-01
  5.22509646E-02  1.98458528E-01 -5.32473666E-01  6.78736989E-03 -2.05156862E-01
 -1.12190174E-01  2.22202187E-01 -6.48507530E-01  7.23770614E-01  1.40847776E-01
  1.69878784E-01  7.95864728E-01  6.80805544E-02 -1.93154480E-01 -4.11797541E-01
 -2.76045576E-01 -1.72709762E-02  2.88423493E-01 -7.81344594E-01 -2.57776511E-02
  1.48785859E-01 -4.18857419E-01  1.10461804E+00  5.87465558E-02 -3.05421739E-01
  4.60920545E-03 -5.75639999E-02  3.26840268E-01  4.32473597E-02 -3.33202717E-02
  3.44681345E-02 -6.14374250E-01 -2.50075925E-01 -1.38341299E-01 -5.27403961E-01
  1.89495470E-01  1.43677328E-01  1.70164938E-01  5.77729261E-02 -1.04492544E+00
 -2.07478896E-01  1.41479267E-02 -3.69728394E-01  1.17376931E+00  3.68096065E-01
 -8.74920175E-02  5.80771253E-01 -1.32995679E-02  8.61808208E-02  1.54380967E-03
  4.10627557E-01  2.90873832E-01  2.48013883E-01 -5.70627630E-02  5.14007766E-01
  5.63850033E-03 -2.48528475E-01 -1.41354868E-01 -1.10773384E+00 -6.14728825E-02
 -3.36692252E-02  6.74744649E-01  5.43431555E-02  6.24325103E-02  2.08368476E-01
 -9.05270191E-01 -9.64930218E-02 -1.23233233E-01 -3.99496789E-01 -7.73147652E-02
  1.29211958E+00 -1.03410778E-02  5.62871524E-01 -5.44377127E-03 -1.54050273E+00
  3.33268772E-02 -5.04816124E-01 -2.99227042E-01  1.46308747E-01 -3.17568639E-02
 -7.78110664E-01  1.54591557E+00 -2.65076970E-03  8.86434401E-01  6.88658435E-02
 -4.18065840E-02  5.31556357E-03 -1.99057320E+00 -1.09521584E-01  1.65365950E-02
 -1.15595279E+00  1.05499544E-03 -1.23833866E+00 -7.62911255E-04  3.30146215E-01
  2.18705803E-01  3.17305377E+00  3.13037424E-02  5.66602278E-01 -1.30134050E+00
  3.12531799E-01 -1.53526421E-01 -9.97474027E-01 -4.30486838E-01
Total SCF Density                          R   N=         253
  2.09148035E+00 -1.99706789E-01  5.82174415E-01  2.31048777E-02 -6.32815404E-02
  5.23123280E-01  3.63525826E-04 -8.69547880E-03 -6.21568245E-03  9.26026931E-01
  2.73049632E-02 -6.17251403E-02  2.15213557E-02  2.11833635E-02  4.40912648E-01
 -2.95430790E-01  6.25145811E-01 -8.93679950E-02  1.44670555E-02 -1.37173547E-01
  6.88060182E-01  8.38092627E-03 -3.37653194E-02  3.41061632E-01 -4.00239008E-03
  2.15050930E-02 -5.15289171E-02  2.22717430E-01 -1.57359121E-03 -3.23963769E-03
 -2.02313922E-03  6.41382958E-01  2.66773604E-02  1.08758242E-02 -1.00335271E-03
  4.44614680E-01  6.33322567E-03 -3.23459339E-02  3.60703809E-02  2.67036508E-02
  2.46067919E-01 -7.40247104E-02  2.77807961E-02  2.52459167E-02  1.39277941E-01
 -4.98937781E-03  1.57647436E-02  5.24238506E-03  4.00977978E-04 -1.84401855E-02
  2.90789662E-02  4.15393069E-03 -1.64419750E-03 -9.21586813E-05  2.08780833E+00
  1.51416303E-02 -4.59034002E-02 -8.35975481E-03 -1.23907229E-03  2.92986063E-02
 -6.53510381E-02 -7.61180289E-03  1.49856048E-03  9.70624416E-05 -1.83154606E-01
  5.41077766E-01 -7.57188676E-03  2.18746399E-02 -3.03507540E-02  9.64400379E-04
 -1.29449401E-02  3.55001991E-02 -2.50447074E-02 -5.11441829E-04 -1.12735660E-02
 -9.73394618E-04 -3.77368997E-03  9.02641452E-01  2.91028785E-03 -1.22561810E-03
  5.79727113E-03 -9.11307699E-02 -4.68272337E-02 -6.82097563E-03  9.07924099E-03
 -6.34640167E-02 -3.25443251E-02  2.13118055E-02 -3.10674570E-02  4.95227688E-04
  7.17980739E-01  1.17616588E-02 -2.43631235E-02 -4.96632562E-03  3.89890010E-02
 -4.27664597E-01  4.44816924E-02 -1.28881077E-02  1.48839019E-02 -2.39389831E-01
 -2.49674006E-02  6.41575744E-02  2.79184388E-03 -5.93921130E-02  4.58296453E-01
  3.11784204E-02 -7.37777368E-02 -3.63555560E-02 -1.42137024E-03  6.62209409E-02
 -9.46223120E-02 -2.84944351E-02  1.56047642E-03  2.19384125E-02 -2.69615828E-01
  5.31433841E-01  2.29659470E-02 -3.54017136E-01  7.25800572E-02  6.78172171E-01
 -4.82541827E-03  1.46031187E-02 -3.74976019E-02  1.47173339E-03 -3.49348974E-03
  2.39792194E-02 -2.81821768E-02  2.62154151E-04 -5.67178478E-03 -2.13084397E-03
 -1.39015176E-04  6.53529214E-01 -9.14138980E-04 -3.49000101E-03  2.08094868E-02
  4.73739708E-01 -7.65053246E-03  1.73292333E-02  6.06144889E-03 -5.33335003E-02
  1.88282570E-02  1.14689818E-02  7.18802607E-03 -3.61471116E-02  1.02410460E-02
  3.30661353E-02 -8.72055021E-02  3.86500514E-03  2.72336313E-01 -7.47401111E-02
 -2.04739175E-01  2.39449038E-03  1.18580523E-01 -1.34493716E-02  2.05627778E-02
  1.22279616E-02  2.80480571E-02 -2.58099888E-01  6.36955059E-02  2.49903673E-03
  1.25130616E-02 -1.43665923E-01 -1.68484535E-02  5.51464447E-02 -7.26809675E-03
 -5.96383680E-02  2.78164525E-01  6.66704302E-02 -9.11590108E-03 -5.54133103E-02
  1.73258478E-01 -1.57422754E-03 -1.72770155E-03  2.69969430E-01 -2.97602858E-04
 -6.43676389E-03 -1.12021112E-02  1.76498772E-01  8.01827586E-04  9.37052317E-03
  2.47962379E-03 -4.28554961E-03 -8.49699482E-02 -2.16663597E-03  1.24433207E-02
 -2.09720701E-02 -6.98374472E-02  2.97374835E-05  1.83214855E-02  1.47099231E-01
  1.88916991E-02 -4.75904741E-02  3.23335623E-01  3.46788345E-03 -2.09662763E-02
 -5.96675969E-02  2.10491846E-01  2.90626827E-03  3.44439466E-03 -1.08734260E-03
  7.59518216E-03 -1.39210799E-01 -1.61072649E-02  3.88053932E-02 -6.06150440E-03
 -1.10695487E-01 -9.76285645E-03  3.44874853E-02  1.77374364E-01  2.20212719E-01
  1.07427197E-02 -2.51844967E-02  2.97498417E-03 -5.96600077E-02 -5.59970346E-02
 -3.00195390E-02  3.93052644E-03 -4.18449149E-02 -4.05001069E-02 -6.62039163E-02
  1.48297545E-01 -6.00885431E-03  4.61106937E-01  1.76522545E-02 -6.64463721E-02
 -4.86873753E-03  1.47712319E-01 -4.99455700E-04 -7.04446255E-04 -3.15279756E-03
  3.52004429E-01  5.66912715E-03 -3.22351069E-03 -4.40475019E-03  4.55007223E-02
 -8.53807363E-02  1.08422546E-02 -3.41715690E-03  2.90696883E-02 -4.69249535E-02
  3.18193635E-02 -4.00820695E-02 -2.31404399E-03  1.21134421E-01  6.67695608E-02
 -9.86683819E-02 -2.89832219E-03  4.18545086E-02  3.47349033E-02 -2.99573166E-04
  8.40976975E-04  7.32771280E-02  4.08044569E-02
Total MP2 Density                          R   N=         253
  2.09178119E+00 -2.05429858E-01  5.86445435E-01  2.25911924E-02 -6.75563681E-02
  5.34687238E-01  2.63756871E-04 -8.51904838E-03 -5.05355083E-03  9.13255984E-01
  2.69449416E-02 -6.54776134E-02  1.97301177E-02  2.09228418E-02  4.51380199E-01
 -2.86294843E-01  6.11034615E-01 -7.22808680E-02  1.50251326E-02 -1.25908436E-01
  7.13240155E-01  7.36958771E-03 -3.30852002E-02  3.45725053E-01 -3.33085026E-03
  1.85445414E-02 -4.24932946E-02  2.38054563E-01 -1.46750226E-03 -3.60536693E-03
 -1.67570437E-03  6.26805773E-01  2.51813781E-02  1.14889356E-02 -9.39715704E-04
  4.71186142E-01  5.05728118E-03 -2.67758029E-02  3.38504029E-02  2.65534434E-02
  2.50323778E-01 -6.50108790E-02  2.77348834E-02  2.66441368E-02  1.50956614E-01
 -4.71734292E-03  1.42226084E-02  3.70904086E-03  6.92634378E-04 -1.61366930E-02
  3.04197919E-02  3.43688675E-03 -1.64773568E-03  1.77988082E-03  2.08875552E+00
  1.37033248E-02 -3.87728377E-02 -3.75679787E-03 -1.85193049E-03  1.97695266E-02
 -6.83142500E-02 -5.18978659E-03  2.43377597E-03 -8.89961254E-03 -1.91909299E-01
  5.51990197E-01 -5.31469629E-03  1.62127025E-02 -4.60621741E-02  3.26208720E-04
 -8.59784824E-03  2.39679904E-02 -4.21839612E-02 -8.26251930E-04 -9.91783846E-03
 -5.09109374E-04 -4.79284892E-03  8.99829188E-01  2.67125123E-03 -1.28493554E-03
  3.22986284E-03 -8.19745793E-02 -3.99875698E-02 -4.16755209E-03  6.48435192E-03
 -6.56350827E-02 -2.87233657E-02  2.09428873E-02 -3.40885557E-02  9.66642063E-04
  7.16377850E-01  1.14429508E-02 -2.14959303E-02 -2.01195705E-03  3.34733765E-02
 -3.63937534E-01  4.48944149E-02 -1.06958381E-02  1.58861261E-02 -2.20989787E-01
 -2.42814831E-02  6.78637401E-02  3.22004218E-03 -5.88292147E-02  4.54732349E-01
  3.24443603E-02 -7.66656876E-02 -3.39724998E-02 -2.90784428E-03  6.13908040E-02
 -1.14647701E-01 -2.86064534E-02  4.80615512E-06  1.34070449E-02 -2.59497170E-01
  5.24333931E-01  2.01684130E-02 -3.35628503E-01  5.98448914E-02  6.88083392E-01
 -3.71795171E-03  1.27252116E-02 -5.36876005E-02  1.16299118E-03 -1.85953511E-03
  1.70994351E-02 -4.32553681E-02  2.23785825E-04 -5.38286970E-03 -1.68182329E-03
 -1.67439691E-03  6.43972556E-01 -5.80237892E-04 -3.37918292E-03  2.01693831E-02
  4.95347269E-01 -6.84334123E-03  1.57005872E-02  3.42678880E-03 -5.60079548E-02
  2.06887867E-02  1.17411523E-02  5.72955454E-03 -4.18423670E-02  1.24567509E-02
  3.31336455E-02 -8.49787208E-02  4.20396622E-03  2.76223969E-01 -7.27812530E-02
 -2.05849013E-01  2.87305396E-03  1.33079842E-01 -1.36176988E-02  2.54069867E-02
  1.38686710E-02  2.67360145E-02 -2.39231861E-01  7.38673094E-02  4.41392324E-03
  1.39665390E-02 -1.43108939E-01 -1.36023145E-02  4.77713661E-02 -6.73931822E-03
 -5.38096948E-02  2.80764320E-01  4.94932780E-02 -9.93822214E-03 -5.55542847E-02
  1.87756966E-01 -2.77192606E-03 -4.90747636E-04  2.16882496E-01 -1.12633316E-03
 -6.07108172E-03 -6.43681434E-03  1.59641987E-01  2.28483928E-04  1.09083392E-02
  3.00441427E-03 -4.48688606E-03 -5.70984230E-02 -5.63251022E-04  9.83125980E-03
 -2.42821124E-02 -5.57026471E-02  5.66762916E-04  1.83484828E-02  1.41417000E-01
  1.76346081E-02 -4.60682699E-02  2.76364288E-01  2.22942215E-03 -1.91356717E-02
 -6.01412745E-02  2.02601446E-01  2.24756843E-03  5.81434770E-03  7.88611241E-05
  5.26998600E-03 -1.02910295E-01 -1.12108548E-02  3.34787968E-02 -1.21534409E-02
 -9.38152207E-02 -8.46202692E-03  3.41009277E-02  1.75886362E-01  2.29738819E-01
  1.04598318E-02 -2.29730575E-02  3.00264610E-03 -5.60831647E-02 -5.60630786E-02
 -3.05435172E-02  3.39710977E-03 -4.37039124E-02 -4.28681569E-02 -6.50482630E-02
  1.46669566E-01 -6.04907183E-03  4.49973112E-01  1.83174298E-02 -6.00348110E-02
 -5.41269016E-03  1.54462794E-01  4.72529001E-04  2.19463997E-04 -1.07642301E-03
  3.56144896E-01  4.14425481E-03 -2.34279260E-03 -2.75471181E-03  4.21247622E-02
 -7.90656779E-02  1.37505104E-02 -2.95004910E-03  3.29421441E-02 -4.61138328E-02
  2.78264854E-02 -3.83612404E-02 -1.05186971E-03  9.97221370E-02  6.39679394E-02
 -9.12277661E-02 -2.04783167E-03  3.72307599E-02  3.76108831E-02 -9.34639662E-04
  1.40486416E-04  6.34651846E-02  3.74754693E-02
Grdnt Energy                               R     -1.510775039985148E+02
Grdnt NVar                                 I               12
Grdnt IGetFC                               I                7
Internal Forces                            R   N=          12
  1.02274137E-01 -1.42216507E-02 -2.33660868E-02 -8.58552502E-03 -7.40529135E-01
  1.47518793E-03 -8.77690930E-02 -2.76271576E-03 -1.45060715E-02 -5.91951918E-03
  7.57513502E-01  3.63969703E-02
Internal Force Constants                   R   N=          78
  1.00000000E+00  0.00000000E+00  1.99131391E-02  0.00000000E+00  0.00000000E+00
  3.23773147E-01  0.00000000E+00  0.00000000E+00  0.00000000E+00  1.00000000E+00
  0.00000000E+00 -1.99131391E-02  0.00000000E+00  0.00000000E+00  1.91508527E+00
  0.00000000E+00  4.26710123E-02 -3.23773147E-01  0.00000000E+00 -4.26710123E-02
  4.15211030E-01  0.00000000E+00  0.00000000E+00  0.00000000E+00  0.00000000E+00
  0.00000000E+00  0.00000000E+00  1.00000000E+00  0.00000000E+00  0.00000000E+00
  0.00000000E+00  0.00000000E+00  0.00000000E+00  0.00000000E+00  0.00000000E+00
  1.00000000E+00  0.00000000E+00  0.00000000E+00  0.00000000E+00  0.00000000E+00
  0.00000000E+00  0.00000000E+00  0.00000000E+00  0.00000000E+00  1.00000000E+00
  0.00000000E+00  0.00000000E+00  0.00000000E+00  0.00000000E+00  0.00000000E+00
  0.00000000E+00  0.00000000E+00  0.00000000E+00  0.00000000E+00  1.00000000E+00
  0.00000000E+00  0.00000000E+00  0.00000000E+00  0.00000000E+00 -1.89517213E+00
  0.00000000E+00  0.00000000E+00  0.00000000E+00  0.00000000E+00  0.00000000E+00
  1.89517213E+00  0.00000000E+00 -4.26710123E-02  0.00000000E+00  0.00000000E+00
  4.26710123E-02 -9.14378835E-02  0.00000000E+00  0.00000000E+00  0.00000000E+00
  0.00000000E+00  0.00000000E+00  9.14378835E-02
Mulliken Charges                           R   N=           4
 -2.78947127E-01 -2.83612126E-01  2.64765951E-01  2.97793302E-01
ONIOM Charges                              I   N=          16
           0           0           0           0           0           0
           0           0           0           0           0           0
           0           0           0           0
ONIOM Multiplicities                       I   N=          16
           1           0           0           0           0           0
           0           0           0           0           0           0
           0           0           0           0
Atom Layers                                I   N=           4
           1           1           1           1
Atom Modifiers                             I   N=           4
           0           0           0           0
Force Field                                I                0